 Entering Gaussian System, Link 0=/home/mmm0534/bin/g09E/g09
 Initial command:
 /home/mmm0534/bin/g09E/l1.exe "/scratch/scratch/mmm0534/g09scr/Gau-7836.inp" -scrdir="/scratch/scratch/mmm0534/g09scr/"
 Entering Link 1 = /home/mmm0534/bin/g09E/l1.exe PID=      7837.
  
 Copyright (c) 1988,1990,1992,1993,1995,1998,2003,2009,2015,
            Gaussian, Inc.  All Rights Reserved.
  
 This is part of the Gaussian(R) 09 program.  It is based on
 the Gaussian(R) 03 system (copyright 2003, Gaussian, Inc.),
 the Gaussian(R) 98 system (copyright 1998, Gaussian, Inc.),
 the Gaussian(R) 94 system (copyright 1995, Gaussian, Inc.),
 the Gaussian 92(TM) system (copyright 1992, Gaussian, Inc.),
 the Gaussian 90(TM) system (copyright 1990, Gaussian, Inc.),
 the Gaussian 88(TM) system (copyright 1988, Gaussian, Inc.),
 the Gaussian 86(TM) system (copyright 1986, Carnegie Mellon
 University), and the Gaussian 82(TM) system (copyright 1983,
 Carnegie Mellon University). Gaussian is a federally registered
 trademark of Gaussian, Inc.
  
 This software contains proprietary and confidential information,
 including trade secrets, belonging to Gaussian, Inc.
  
 This software is provided under written license and may be
 used, copied, transmitted, or stored only in accord with that
 written license.
  
 The following legend is applicable only to US Government
 contracts under FAR:
  
                    RESTRICTED RIGHTS LEGEND
  
 Use, reproduction and disclosure by the US Government is
 subject to restrictions as set forth in subparagraphs (a)
 and (c) of the Commercial Computer Software - Restricted
 Rights clause in FAR 52.227-19.
  
 Gaussian, Inc.
 340 Quinnipiac St., Bldg. 40, Wallingford CT 06492
  
  
 ---------------------------------------------------------------
 Warning -- This program may not be used in any manner that
 competes with the business of Gaussian, Inc. or will provide
 assistance to any competitor of Gaussian, Inc.  The licensee
 of this program is prohibited from giving any competitor of
 Gaussian, Inc. access to this program.  By using this program,
 the user acknowledges that Gaussian, Inc. is engaged in the
 business of creating and licensing software in the field of
 computational chemistry and represents and warrants to the
 licensee that it is not a competitor of Gaussian, Inc. and that
 it will not use this program in any manner prohibited above.
 ---------------------------------------------------------------
  

 Cite this work as:
 Gaussian 09, Revision E.01,
 M. J. Frisch, G. W. Trucks, H. B. Schlegel, G. E. Scuseria, 
 M. A. Robb, J. R. Cheeseman, G. Scalmani, V. Barone, B. Mennucci, 
 G. A. Petersson, H. Nakatsuji, M. Caricato, X. Li, H. P. Hratchian, 
 A. F. Izmaylov, J. Bloino, G. Zheng, J. L. Sonnenberg, M. Hada, 
 M. Ehara, K. Toyota, R. Fukuda, J. Hasegawa, M. Ishida, T. Nakajima, 
 Y. Honda, O. Kitao, H. Nakai, T. Vreven, J. A. Montgomery, Jr., 
 J. E. Peralta, F. Ogliaro, M. Bearpark, J. J. Heyd, E. Brothers, 
 K. N. Kudin, V. N. Staroverov, T. Keith, R. Kobayashi, J. Normand, 
 K. Raghavachari, A. Rendell, J. C. Burant, S. S. Iyengar, J. Tomasi, 
 M. Cossi, N. Rega, J. M. Millam, M. Klene, J. E. Knox, J. B. Cross, 
 V. Bakken, C. Adamo, J. Jaramillo, R. Gomperts, R. E. Stratmann, 
 O. Yazyev, A. J. Austin, R. Cammi, C. Pomelli, J. W. Ochterski, 
 R. L. Martin, K. Morokuma, V. G. Zakrzewski, G. A. Voth, 
 P. Salvador, J. J. Dannenberg, S. Dapprich, A. D. Daniels, 
 O. Farkas, J. B. Foresman, J. V. Ortiz, J. Cioslowski, 
 and D. J. Fox, Gaussian, Inc., Wallingford CT, 2013.
 
 ******************************************
 Gaussian 09:  ES64L-G09RevE.01 30-Nov-2015
                21-Jun-2019 
 ******************************************
 %chk=Au_cas_19813-90-2_spid_2041157.chk
 %nproc=24
 Will use up to   24 processors via shared memory.
 %mem=120GB
 ----------------------------------------------------------------------
 #p opt freq=raman b3lyp/def2svp pop(nbo) nosymm int=ultrafine empirica
 ldispersion=GD3BJ
 ----------------------------------------------------------------------
 1/14=-1,18=20,19=15,26=4,38=1/1,3;
 2/9=110,12=2,15=1,17=6,18=5,40=1/2;
 3/5=43,7=101,11=2,16=1,25=1,30=1,71=1,74=-5,75=-5,124=41/1,2,3;
 4//1;
 5/5=2,38=5/2;
 6/7=2,8=2,9=2,10=2,28=1,40=1/1,7;
 7/30=1/1,2,3,16;
 1/14=-1,18=20,19=15,26=4/3(2);
 2/9=110,15=1/2;
 99//99;
 2/9=110,15=1/2;
 3/5=43,7=101,11=2,16=1,25=1,30=1,71=1,74=-5,75=-5,124=41/1,2,3;
 4/5=5,16=3,69=1/1;
 5/5=2,38=5/2;
 7/30=1/1,2,3,16;
 1/14=-1,18=20,19=15,26=4/3(-5);
 2/9=110,15=1/2;
 6/7=2,8=2,9=2,10=2,19=2,28=1,40=1/1,7;
 99/9=1/99;
 Leave Link    1 at Fri Jun 21 12:44:27 2019, MaxMem= 16106127360 cpu:         9.4
 (Enter /home/mmm0534/bin/g09E/l101.exe)
 -------
 comment
 -------
 Symbolic Z-matrix:
 Charge =  0 Multiplicity = 1
 C                    -2.43664  -3.13051   0. 
 C                    -3.1086   -1.90604   0. 
 C                    -2.39501  -0.70779   0. 
 C                    -0.98588  -0.68694   0. 
 C                    -0.32958  -1.9341    0. 
 C                    -1.03985  -3.13424   0. 
 C                    -0.22597   0.59348   0. 
 C                     1.16578   0.63251   0.20752 
 C                     1.88364   1.82528   0.20904 
 C                     1.23584   3.05126   0.00048 
 C                    -0.15505   3.03453  -0.20892 
 C                    -0.85908   1.83454  -0.20769 
 S                     2.00467   4.65327  -0.02711 
 Au                    4.26969   4.27785  -0.03858 
 H                     1.72263  -0.28923   0.37491 
 H                    -1.93488   1.88247  -0.37513 
 H                    -2.95716   0.22583   0. 
 H                     0.75928  -1.98067   0. 
 H                     2.96262   1.80394   0.37457 
 H                    -0.69212   3.97135  -0.37466 
 H                    -4.20106  -1.88      0. 
 H                    -0.49402  -4.08096   0. 
 H                    -2.9943   -4.0698    0. 
 
 NAtoms=     23 NQM=       23 NQMF=       0 NMMI=      0 NMMIF=      0
                NMic=       0 NMicF=      0.
                    Isotopes and Nuclear Properties:
 (Nuclear quadrupole moments (NQMom) in fm**2, nuclear magnetic moments (NMagM)
  in nuclear magnetons)

  Atom         1           2           3           4           5           6           7           8           9          10
 IAtWgt=          12          12          12          12          12          12          12          12          12          12
 AtmWgt=  12.0000000  12.0000000  12.0000000  12.0000000  12.0000000  12.0000000  12.0000000  12.0000000  12.0000000  12.0000000
 NucSpn=           0           0           0           0           0           0           0           0           0           0
 AtZEff=   0.0000000   0.0000000   0.0000000   0.0000000   0.0000000   0.0000000   0.0000000   0.0000000   0.0000000   0.0000000
 NQMom=    0.0000000   0.0000000   0.0000000   0.0000000   0.0000000   0.0000000   0.0000000   0.0000000   0.0000000   0.0000000
 NMagM=    0.0000000   0.0000000   0.0000000   0.0000000   0.0000000   0.0000000   0.0000000   0.0000000   0.0000000   0.0000000
 AtZNuc=   6.0000000   6.0000000   6.0000000   6.0000000   6.0000000   6.0000000   6.0000000   6.0000000   6.0000000   6.0000000

  Atom        11          12          13          14          15          16          17          18          19          20
 IAtWgt=          12          12          32         197           1           1           1           1           1           1
 AtmWgt=  12.0000000  12.0000000  31.9720718 196.9666000   1.0078250   1.0078250   1.0078250   1.0078250   1.0078250   1.0078250
 NucSpn=           0           0           0           3           1           1           1           1           1           1
 AtZEff=   0.0000000   0.0000000   0.0000000   0.0000000   0.0000000   0.0000000   0.0000000   0.0000000   0.0000000   0.0000000
 NQMom=    0.0000000   0.0000000   0.0000000  54.7000000   0.0000000   0.0000000   0.0000000   0.0000000   0.0000000   0.0000000
 NMagM=    0.0000000   0.0000000   0.0000000   0.1481590   2.7928460   2.7928460   2.7928460   2.7928460   2.7928460   2.7928460
 AtZNuc=   6.0000000   6.0000000  16.0000000  79.0000000   1.0000000   1.0000000   1.0000000   1.0000000   1.0000000   1.0000000

  Atom        21          22          23
 IAtWgt=           1           1           1
 AtmWgt=   1.0078250   1.0078250   1.0078250
 NucSpn=           1           1           1
 AtZEff=   0.0000000   0.0000000   0.0000000
 NQMom=    0.0000000   0.0000000   0.0000000
 NMagM=    2.7928460   2.7928460   2.7928460
 AtZNuc=   1.0000000   1.0000000   1.0000000
 Leave Link  101 at Fri Jun 21 12:44:27 2019, MaxMem= 16106127360 cpu:        11.1
 (Enter /home/mmm0534/bin/g09E/l103.exe)

 GradGradGradGradGradGradGradGradGradGradGradGradGradGradGradGradGradGrad
 Berny optimization.
 Initialization pass.
                           ----------------------------
                           !    Initial Parameters    !
                           ! (Angstroms and Degrees)  !
 --------------------------                            --------------------------
 ! Name  Definition              Value          Derivative Info.                !
 --------------------------------------------------------------------------------
 ! R1    R(1,2)                  1.3967         estimate D2E/DX2                !
 ! R2    R(1,6)                  1.3968         estimate D2E/DX2                !
 ! R3    R(1,23)                 1.0924         estimate D2E/DX2                !
 ! R4    R(2,3)                  1.3946         estimate D2E/DX2                !
 ! R5    R(2,21)                 1.0928         estimate D2E/DX2                !
 ! R6    R(3,4)                  1.4093         estimate D2E/DX2                !
 ! R7    R(3,17)                 1.0898         estimate D2E/DX2                !
 ! R8    R(4,5)                  1.4093         estimate D2E/DX2                !
 ! R9    R(4,7)                  1.4889         estimate D2E/DX2                !
 ! R10   R(5,6)                  1.3946         estimate D2E/DX2                !
 ! R11   R(5,18)                 1.0899         estimate D2E/DX2                !
 ! R12   R(6,22)                 1.0928         estimate D2E/DX2                !
 ! R13   R(7,8)                  1.4077         estimate D2E/DX2                !
 ! R14   R(7,12)                 1.4086         estimate D2E/DX2                !
 ! R15   R(8,9)                  1.3921         estimate D2E/DX2                !
 ! R16   R(8,15)                 1.0898         estimate D2E/DX2                !
 ! R17   R(9,10)                 1.4022         estimate D2E/DX2                !
 ! R18   R(9,19)                 1.0918         estimate D2E/DX2                !
 ! R19   R(10,11)                1.4067         estimate D2E/DX2                !
 ! R20   R(10,13)                1.7772         estimate D2E/DX2                !
 ! R21   R(11,12)                1.3913         estimate D2E/DX2                !
 ! R22   R(11,20)                1.0925         estimate D2E/DX2                !
 ! R23   R(12,16)                1.0898         estimate D2E/DX2                !
 ! R24   R(13,14)                2.296          estimate D2E/DX2                !
 ! A1    A(2,1,6)              118.9098         estimate D2E/DX2                !
 ! A2    A(2,1,23)             120.5458         estimate D2E/DX2                !
 ! A3    A(6,1,23)             120.5444         estimate D2E/DX2                !
 ! A4    A(1,2,3)              120.4685         estimate D2E/DX2                !
 ! A5    A(1,2,21)             120.1217         estimate D2E/DX2                !
 ! A6    A(3,2,21)             119.4098         estimate D2E/DX2                !
 ! A7    A(2,3,4)              121.6227         estimate D2E/DX2                !
 ! A8    A(2,3,17)             118.1723         estimate D2E/DX2                !
 ! A9    A(4,3,17)             120.205          estimate D2E/DX2                !
 ! A10   A(3,4,5)              116.9072         estimate D2E/DX2                !
 ! A11   A(3,4,7)              121.5363         estimate D2E/DX2                !
 ! A12   A(5,4,7)              121.5565         estimate D2E/DX2                !
 ! A13   A(4,5,6)              121.6267         estimate D2E/DX2                !
 ! A14   A(4,5,18)             120.2039         estimate D2E/DX2                !
 ! A15   A(6,5,18)             118.1694         estimate D2E/DX2                !
 ! A16   A(1,6,5)              120.465          estimate D2E/DX2                !
 ! A17   A(1,6,22)             120.119          estimate D2E/DX2                !
 ! A18   A(5,6,22)             119.4159         estimate D2E/DX2                !
 ! A19   A(4,7,8)              121.8999         estimate D2E/DX2                !
 ! A20   A(4,7,12)             121.889          estimate D2E/DX2                !
 ! A21   A(8,7,12)             116.2111         estimate D2E/DX2                !
 ! A22   A(7,8,9)              122.2585         estimate D2E/DX2                !
 ! A23   A(7,8,15)             120.2897         estimate D2E/DX2                !
 ! A24   A(9,8,15)             117.4518         estimate D2E/DX2                !
 ! A25   A(8,9,10)             120.712          estimate D2E/DX2                !
 ! A26   A(8,9,19)             119.5392         estimate D2E/DX2                !
 ! A27   A(10,9,19)            119.7487         estimate D2E/DX2                !
 ! A28   A(9,10,11)            117.9404         estimate D2E/DX2                !
 ! A29   A(9,10,13)            126.1996         estimate D2E/DX2                !
 ! A30   A(11,10,13)           115.86           estimate D2E/DX2                !
 ! A31   A(10,11,12)           120.696          estimate D2E/DX2                !
 ! A32   A(10,11,20)           119.899          estimate D2E/DX2                !
 ! A33   A(12,11,20)           119.405          estimate D2E/DX2                !
 ! A34   A(7,12,11)            122.182          estimate D2E/DX2                !
 ! A35   A(7,12,16)            120.3369         estimate D2E/DX2                !
 ! A36   A(11,12,16)           117.4811         estimate D2E/DX2                !
 ! A37   A(10,13,14)           106.2285         estimate D2E/DX2                !
 ! D1    D(6,1,2,3)              0.0            estimate D2E/DX2                !
 ! D2    D(6,1,2,21)           180.0            estimate D2E/DX2                !
 ! D3    D(23,1,2,3)           180.0            estimate D2E/DX2                !
 ! D4    D(23,1,2,21)            0.0            estimate D2E/DX2                !
 ! D5    D(2,1,6,5)              0.0            estimate D2E/DX2                !
 ! D6    D(2,1,6,22)           180.0            estimate D2E/DX2                !
 ! D7    D(23,1,6,5)           180.0            estimate D2E/DX2                !
 ! D8    D(23,1,6,22)            0.0            estimate D2E/DX2                !
 ! D9    D(1,2,3,4)              0.0            estimate D2E/DX2                !
 ! D10   D(1,2,3,17)           180.0            estimate D2E/DX2                !
 ! D11   D(21,2,3,4)           180.0            estimate D2E/DX2                !
 ! D12   D(21,2,3,17)            0.0            estimate D2E/DX2                !
 ! D13   D(2,3,4,5)              0.0            estimate D2E/DX2                !
 ! D14   D(2,3,4,7)            180.0            estimate D2E/DX2                !
 ! D15   D(17,3,4,5)           180.0            estimate D2E/DX2                !
 ! D16   D(17,3,4,7)             0.0            estimate D2E/DX2                !
 ! D17   D(3,4,5,6)              0.0            estimate D2E/DX2                !
 ! D18   D(3,4,5,18)           180.0            estimate D2E/DX2                !
 ! D19   D(7,4,5,6)            180.0            estimate D2E/DX2                !
 ! D20   D(7,4,5,18)             0.0            estimate D2E/DX2                !
 ! D21   D(3,4,7,8)            170.0            estimate D2E/DX2                !
 ! D22   D(3,4,7,12)           -10.0            estimate D2E/DX2                !
 ! D23   D(5,4,7,8)             -10.0           estimate D2E/DX2                !
 ! D24   D(5,4,7,12)           170.0            estimate D2E/DX2                !
 ! D25   D(4,5,6,1)              0.0            estimate D2E/DX2                !
 ! D26   D(4,5,6,22)           180.0            estimate D2E/DX2                !
 ! D27   D(18,5,6,1)           180.0            estimate D2E/DX2                !
 ! D28   D(18,5,6,22)            0.0            estimate D2E/DX2                !
 ! D29   D(4,7,8,9)           -180.0            estimate D2E/DX2                !
 ! D30   D(4,7,8,15)             0.0            estimate D2E/DX2                !
 ! D31   D(12,7,8,9)             0.0            estimate D2E/DX2                !
 ! D32   D(12,7,8,15)          180.0            estimate D2E/DX2                !
 ! D33   D(4,7,12,11)          180.0            estimate D2E/DX2                !
 ! D34   D(4,7,12,16)            0.0            estimate D2E/DX2                !
 ! D35   D(8,7,12,11)            0.0            estimate D2E/DX2                !
 ! D36   D(8,7,12,16)         -180.0            estimate D2E/DX2                !
 ! D37   D(7,8,9,10)            -0.0001         estimate D2E/DX2                !
 ! D38   D(7,8,9,19)          -180.0            estimate D2E/DX2                !
 ! D39   D(15,8,9,10)         -180.0            estimate D2E/DX2                !
 ! D40   D(15,8,9,19)            0.0001         estimate D2E/DX2                !
 ! D41   D(8,9,10,11)            0.0001         estimate D2E/DX2                !
 ! D42   D(8,9,10,13)         -180.0            estimate D2E/DX2                !
 ! D43   D(19,9,10,11)         180.0            estimate D2E/DX2                !
 ! D44   D(19,9,10,13)           0.0            estimate D2E/DX2                !
 ! D45   D(9,10,11,12)           0.0            estimate D2E/DX2                !
 ! D46   D(9,10,11,20)         180.0            estimate D2E/DX2                !
 ! D47   D(13,10,11,12)        180.0            estimate D2E/DX2                !
 ! D48   D(13,10,11,20)          0.0            estimate D2E/DX2                !
 ! D49   D(9,10,13,14)          10.0            estimate D2E/DX2                !
 ! D50   D(11,10,13,14)       -170.0            estimate D2E/DX2                !
 ! D51   D(10,11,12,7)           0.0            estimate D2E/DX2                !
 ! D52   D(10,11,12,16)        180.0            estimate D2E/DX2                !
 ! D53   D(20,11,12,7)        -180.0            estimate D2E/DX2                !
 ! D54   D(20,11,12,16)         -0.0001         estimate D2E/DX2                !
 --------------------------------------------------------------------------------
 Trust Radius=3.00D-01 FncErr=1.00D-07 GrdErr=1.00D-06
 Number of steps in this run=    125 maximum allowed number of steps=    138.
 GradGradGradGradGradGradGradGradGradGradGradGradGradGradGradGradGradGrad

 Leave Link  103 at Fri Jun 21 12:44:27 2019, MaxMem= 16106127360 cpu:         5.1
 (Enter /home/mmm0534/bin/g09E/l202.exe)
                          Input orientation:                          
 ---------------------------------------------------------------------
 Center     Atomic      Atomic             Coordinates (Angstroms)
 Number     Number       Type             X           Y           Z
 ---------------------------------------------------------------------
      1          6           0       -2.436641   -3.130510    0.000000
      2          6           0       -3.108596   -1.906035    0.000000
      3          6           0       -2.395013   -0.707794    0.000000
      4          6           0       -0.985880   -0.686940    0.000000
      5          6           0       -0.329576   -1.934100    0.000000
      6          6           0       -1.039853   -3.134244    0.000000
      7          6           0       -0.225972    0.593482    0.000000
      8          6           0        1.165775    0.632510    0.207523
      9          6           0        1.883643    1.825280    0.209037
     10          6           0        1.235840    3.051260    0.000480
     11          6           0       -0.155051    3.034531   -0.208920
     12          6           0       -0.859080    1.834535   -0.207685
     13         16           0        2.004666    4.653268   -0.027108
     14         79           0        4.269694    4.277850   -0.038578
     15          1           0        1.722632   -0.289232    0.374911
     16          1           0       -1.934880    1.882466   -0.375125
     17          1           0       -2.957162    0.225827    0.000000
     18          1           0        0.759280   -1.980665    0.000000
     19          1           0        2.962620    1.803942    0.374566
     20          1           0       -0.692118    3.971346   -0.374663
     21          1           0       -4.201064   -1.880002    0.000000
     22          1           0       -0.494020   -4.080956    0.000000
     23          1           0       -2.994299   -4.069805    0.000000
 ---------------------------------------------------------------------
                    Distance matrix (angstroms):
                    1          2          3          4          5
     1  C    0.000000
     2  C    1.396733   0.000000
     3  C    2.423074   1.394626   0.000000
     4  C    2.841785   2.447880   1.409287   0.000000
     5  C    2.423039   2.779162   2.402053   1.409306   0.000000
     6  C    1.396793   2.405867   2.779230   2.447899   1.394575
     7  C    4.330724   3.815378   2.529438   1.488939   2.529704
     8  C    5.213520   4.975693   3.810340   2.532515   2.977688
     9  C    6.577872   6.236093   4.976651   3.819569   4.367490
    10  C    7.190368   6.591578   5.226240   4.348584   5.225356
    11  C    6.577008   5.759884   4.366472   3.818805   4.976083
    12  C    5.213780   4.369819   2.977526   2.533189   3.811314
    13  S    8.961760   8.316889   6.935337   6.120614   6.988765
    14  Au   9.993008   9.627102   8.323248   7.229916   7.729366
    15  H    5.051037   5.108363   4.155810   2.763108   2.656634
    16  H    5.051971   3.983851   2.657421   2.764628   4.157390
    17  H    3.396460   2.137234   1.089798   2.172348   3.401396
    18  H    3.396477   3.868596   3.401436   2.172397   1.089851
    19  H    7.324011   7.124878   5.929026   4.683529   4.995179
    20  H    7.322574   6.365795   4.993453   4.682552   5.928415
    21  H    2.162628   1.092778   2.153112   3.429403   3.871866
    22  H    2.162666   3.400925   3.871950   3.429471   2.153145
    23  H    1.092363   2.166787   3.415005   3.934148   3.414965
                    6          7          8          9         10
     6  C    0.000000
     7  C    3.815540   0.000000
     8  C    4.369931   1.407675   0.000000
     9  C    5.760851   2.451836   1.392134   0.000000
    10  C    6.590845   2.859645   2.428606   1.402202   0.000000
    11  C    6.235408   2.450999   2.772672   2.406917   1.406665
    12  C    4.976402   1.408606   2.391088   2.774216   2.431551
    13  S    8.361529   4.632315   4.114035   2.840410   1.777156
    14  Au   9.117670   5.812665   4.794099   3.430693   3.272662
    15  H    3.983212   2.171819   1.089824   2.127111   3.396476
    16  H    5.109713   2.173146   3.393513   3.863371   3.400092
    17  H    3.868611   2.755825   4.148140   5.102484   5.056119
    18  H    2.137200   2.756257   2.652732   3.974054   5.054441
    19  H    6.367556   3.431127   2.151467   1.091809   2.162756
    20  H    7.123953   3.430398   3.865040   3.403065   2.168943
    21  H    3.400938   4.681824   5.929481   7.127164   7.340114
    22  H    1.092793   4.682117   5.001474   6.370291   7.339000
    23  H    2.166826   5.423088   6.281803   7.654413   8.282732
                   11         12         13         14         15
    11  C    0.000000
    12  C    1.391276   0.000000
    13  S    2.705133   4.022301   0.000000
    14  Au   4.599264   5.683547   2.295958   0.000000
    15  H    3.861859   3.393382   4.966837   5.245640   0.000000
    16  H    2.126657   1.089807   4.828921   6.659419   4.319285
    17  H    3.972945   2.651985   6.650015   8.285398   4.722956
    18  H    5.102141   4.149455   6.749873   7.175897   1.982309
    19  H    3.402158   3.865921   3.032767   2.828312   2.432889
    20  H    1.092490   2.149818   2.803294   4.982617   4.954332
    21  H    6.369184   5.000977   9.010851  10.472553   6.145021
    22  H    7.126619   5.930382   9.084648   9.621024   4.408092
    23  H    7.653533   6.282000  10.053974  11.065732   6.056627
                   16         17         18         19         20
    16  H    0.000000
    17  H    1.982481   0.000000
    18  H    4.724722   4.322100   0.000000
    19  H    4.955170   6.137961   4.395254   0.000000
    20  H    2.430613   4.393143   6.137863   4.314637   0.000000
    21  H    4.408228   2.445773   4.961365   8.064125   6.833107
    22  H    6.146479   4.961396   2.445809   6.835253   8.063447
    23  H    6.057443   4.295793   4.295796   8.374132   8.372605
                   21         22         23
    21  H    0.000000
    22  H    4.311192   0.000000
    23  H    2.500304   2.500304   0.000000
 Symmetry turned off by external request.
 Stoichiometry    C12H9AuS
 Framework group  C1[X(C12H9AuS)]
 Deg. of freedom    63
 Full point group                 C1      NOp   1
 Rotational constants (GHZ):      1.5926501      0.1098432      0.1028453
 Leave Link  202 at Fri Jun 21 12:44:28 2019, MaxMem= 16106127360 cpu:         2.1
 (Enter /home/mmm0534/bin/g09E/l301.exe)
 Standard basis: def2SVP (5D, 7F)
 Ernie: Thresh=  0.10000D-02 Tol=  0.10000D-05 Strict=F.
   263 basis functions,   465 primitive gaussians,   281 cartesian basis functions
    58 alpha electrons       58 beta electrons
       nuclear repulsion energy       950.8741765244 Hartrees.
 IExCor=  402 DFT=T Ex+Corr=B3LYP ExCW=0 ScaHFX=  0.200000
 ScaDFX=  0.800000  0.720000  1.000000  0.810000 ScalE2=  1.000000  1.000000
 IRadAn=      5 IRanWt=     -1 IRanGd=            0 ICorTp=0 IEmpDi=141
 NAtoms=   23 NActive=   23 NUniq=   23 SFac= 1.00D+00 NAtFMM=   60 NAOKFM=F Big=F
 Integral buffers will be    131072 words long.
 Raffenetti 2 integral format.
 Two-electron integral symmetry is turned off.
 R6Disp:  Grimme-D3(BJ) Dispersion energy=       -0.0566537913 Hartrees.
 Nuclear repulsion after empirical dispersion term =      950.8175227331 Hartrees.
 Leave Link  301 at Fri Jun 21 12:44:28 2019, MaxMem= 16106127360 cpu:        16.8
 (Enter /home/mmm0534/bin/g09E/l302.exe)
 NPDir=0 NMtPBC=     1 NCelOv=     1 NCel=       1 NClECP=     1 NCelD=      1
         NCelK=      1 NCelE2=     1 NClLst=     1 CellRange=     0.0.
 One-electron integrals computed using PRISM.
   1 Symmetry operations used in ECPInt.
 ECPInt:  NShTT=    7140 NPrTT=   25870 LenC2=    6539 LenP2D=   17492.
 LDataN:  DoStor=T MaxTD1= 7 Len=  274
 NBasis=   263 RedAO= T EigKep=  2.73D-04  NBF=   263
 NBsUse=   263 1.00D-06 EigRej= -1.00D+00 NBFU=   263
 Precomputing XC quadrature grid using
 IXCGrd= 4 IRadAn=           5 IRanWt=          -1 IRanGd=           0 AccXCQ= 0.00D+00.
 Defaulting to unpruned grid for atomic number  79.
 Generated NRdTot=       0 NPtTot=           0 NUsed=           0 NTot=          32
 NSgBfM=   277   277   277   277   277 MxSgAt=    23 MxSgA2=    23.
 Leave Link  302 at Fri Jun 21 12:44:29 2019, MaxMem= 16106127360 cpu:        19.9
 (Enter /home/mmm0534/bin/g09E/l303.exe)
 DipDrv:  MaxL=1.
 Leave Link  303 at Fri Jun 21 12:44:29 2019, MaxMem= 16106127360 cpu:         2.0
 (Enter /home/mmm0534/bin/g09E/l401.exe)
 ExpMin= 4.89D-02 ExpMax= 9.18D+03 ExpMxC= 1.38D+03 IAcc=3 IRadAn=         5 AccDes= 0.00D+00
 Harris functional with IExCor=  402 and IRadAn=       5 diagonalized for initial guess.
 HarFok:  IExCor=  402 AccDes= 0.00D+00 IRadAn=         5 IDoV= 1 UseB2=F ITyADJ=14
 ICtDFT=  3500011 ScaDFX=  1.000000  1.000000  1.000000  1.000000
 Defaulting to unpruned grid for atomic number  79.
 Defaulting to unpruned grid for atomic number  79.
 Defaulting to unpruned grid for atomic number  79.
 Defaulting to unpruned grid for atomic number  79.
 Defaulting to unpruned grid for atomic number  79.
 Defaulting to unpruned grid for atomic number  79.
 Defaulting to unpruned grid for atomic number  79.
 Defaulting to unpruned grid for atomic number  79.
 Defaulting to unpruned grid for atomic number  79.
 Defaulting to unpruned grid for atomic number  79.
 Defaulting to unpruned grid for atomic number  79.
 Defaulting to unpruned grid for atomic number  79.
 Defaulting to unpruned grid for atomic number  79.
 Defaulting to unpruned grid for atomic number  79.
 Defaulting to unpruned grid for atomic number  79.
 Defaulting to unpruned grid for atomic number  79.
 Defaulting to unpruned grid for atomic number  79.
 Defaulting to unpruned grid for atomic number  79.
 Defaulting to unpruned grid for atomic number  79.
 Defaulting to unpruned grid for atomic number  79.
 Defaulting to unpruned grid for atomic number  79.
 Defaulting to unpruned grid for atomic number  79.
 Defaulting to unpruned grid for atomic number  79.
 Defaulting to unpruned grid for atomic number  79.
 FoFCou: FMM=F IPFlag=           0 FMFlag=      100000 FMFlg1=           0
         NFxFlg=           0 DoJE=T BraDBF=F KetDBF=T FulRan=T
         wScrn=  0.000000 ICntrl=     500 IOpCl=  0 I1Cent=   200000004 NGrid=           0
         NMat0=    1 NMatS0=      1 NMatT0=    0 NMatD0=    1 NMtDS0=    0 NMtDT0=    0
 Symmetry not used in FoFCou.
 Harris En= -996.000042292920    
 JPrj=0 DoOrth=F DoCkMO=F.
 Leave Link  401 at Fri Jun 21 12:44:31 2019, MaxMem= 16106127360 cpu:        41.7
 (Enter /home/mmm0534/bin/g09E/l502.exe)
 Closed shell SCF:
 Using DIIS extrapolation, IDIIS=  1040.
 Two-electron integral symmetry not used.
 Keep R1 ints in memory in canonical form, NReq=614094338.
 IVT=      263909 IEndB=      263909 NGot= 16106127360 MDV= 15503245766
 LenX= 15503245766 LenY= 15503166364
 Requested convergence on RMS density matrix=1.00D-08 within 128 cycles.
 Requested convergence on MAX density matrix=1.00D-06.
 Requested convergence on             energy=1.00D-06.
 No special actions if energy rises.
 FoFCou: FMM=F IPFlag=           0 FMFlag=           0 FMFlg1=           0
         NFxFlg=           0 DoJE=F BraDBF=F KetDBF=F FulRan=T
         wScrn=  0.000000 ICntrl=     600 IOpCl=  0 I1Cent=           0 NGrid=           0
         NMat0=    1 NMatS0=  34716 NMatT0=    0 NMatD0=    1 NMtDS0=    0 NMtDT0=    0
 Symmetry not used in FoFCou.

 Cycle   1  Pass 1  IDiag  1:
 Defaulting to unpruned grid for atomic number  79.
 Defaulting to unpruned grid for atomic number  79.
 Defaulting to unpruned grid for atomic number  79.
 Defaulting to unpruned grid for atomic number  79.
 Defaulting to unpruned grid for atomic number  79.
 Defaulting to unpruned grid for atomic number  79.
 Defaulting to unpruned grid for atomic number  79.
 Defaulting to unpruned grid for atomic number  79.
 Defaulting to unpruned grid for atomic number  79.
 Defaulting to unpruned grid for atomic number  79.
 Defaulting to unpruned grid for atomic number  79.
 Defaulting to unpruned grid for atomic number  79.
 Defaulting to unpruned grid for atomic number  79.
 Defaulting to unpruned grid for atomic number  79.
 Defaulting to unpruned grid for atomic number  79.
 Defaulting to unpruned grid for atomic number  79.
 Defaulting to unpruned grid for atomic number  79.
 Defaulting to unpruned grid for atomic number  79.
 Defaulting to unpruned grid for atomic number  79.
 Defaulting to unpruned grid for atomic number  79.
 Defaulting to unpruned grid for atomic number  79.
 Defaulting to unpruned grid for atomic number  79.
 Defaulting to unpruned grid for atomic number  79.
 Defaulting to unpruned grid for atomic number  79.
 E= -994.571522545889    
 DIIS: error= 1.30D-01 at cycle   1 NSaved=   1.
 NSaved= 1 IEnMin= 1 EnMin= -994.571522545889     IErMin= 1 ErrMin= 1.30D-01
 ErrMax= 1.30D-01  0.00D+00 EMaxC= 1.00D-01 BMatC= 1.52D+00 BMatP= 1.52D+00
 IDIUse=3 WtCom= 0.00D+00 WtEn= 1.00D+00
 Coeff-Com:  0.100D+01
 Coeff-En:   0.100D+01
 Coeff:      0.100D+01
 Gap=     0.961 Goal=   None    Shift=    0.000
 GapD=    0.961 DampG=2.000 DampE=0.125 DampFc=0.2500 IDamp=-1.
 Damping current iteration by 2.50D-01
 RMSDP=3.80D-02 MaxDP=4.17D+00              OVMax= 9.67D-01

 Cycle   2  Pass 1  IDiag  1:
 E= -994.307436650719     Delta-E=        0.264085895170 Rises=F Damp=T
 DIIS: error= 2.19D-02 at cycle   2 NSaved=   2.
 NSaved= 2 IEnMin= 1 EnMin= -994.571522545889     IErMin= 2 ErrMin= 2.19D-02
 ErrMax= 2.19D-02  0.00D+00 EMaxC= 1.00D-01 BMatC= 1.76D-01 BMatP= 1.52D+00
 IDIUse=3 WtCom= 7.81D-01 WtEn= 2.19D-01
 Coeff-Com:  0.109D-01 0.989D+00
 Coeff-En:   0.564D+00 0.436D+00
 Coeff:      0.132D+00 0.868D+00
 Gap=    -0.331 Goal=   None    Shift=    0.000
 RMSDP=1.31D-02 MaxDP=1.24D+00 DE= 2.64D-01 OVMax= 9.94D-01

 Cycle   3  Pass 1  IDiag  1:
 E= -990.587281837705     Delta-E=        3.720154813014 Rises=F Damp=F
 DIIS: error= 8.99D-02 at cycle   3 NSaved=   3.
 NSaved= 3 IEnMin= 1 EnMin= -994.571522545889     IErMin= 2 ErrMin= 2.19D-02
 ErrMax= 8.99D-02  0.00D+00 EMaxC= 1.00D-01 BMatC= 2.31D+00 BMatP= 1.76D-01
 IDIUse=2 WtCom= 0.00D+00 WtEn= 1.00D+00
 EnCoef did     7 forward-backward iterations
 Coeff-En:   0.486D+00 0.456D+00 0.580D-01
 Coeff:      0.486D+00 0.456D+00 0.580D-01
 Gap=    -0.464 Goal=   None    Shift=    0.000
 RMSDP=1.28D-02 MaxDP=1.12D+00 DE= 3.72D+00 OVMax= 6.77D-01

 Cycle   4  Pass 1  IDiag  1:
 E= -994.499180061900     Delta-E=       -3.911898224195 Rises=F Damp=F
 DIIS: error= 7.65D-02 at cycle   4 NSaved=   4.
 NSaved= 4 IEnMin= 1 EnMin= -994.571522545889     IErMin= 2 ErrMin= 2.19D-02
 ErrMax= 7.65D-02  0.00D+00 EMaxC= 1.00D-01 BMatC= 1.08D+00 BMatP= 1.76D-01
 IDIUse=2 WtCom= 0.00D+00 WtEn= 1.00D+00
 EnCoef did   100 forward-backward iterations
 Coeff-En:   0.505D+00 0.447D-02 0.157D-02 0.489D+00
 Coeff:      0.505D+00 0.447D-02 0.157D-02 0.489D+00
 Gap=     0.055 Goal=   None    Shift=    0.000
 RMSDP=8.85D-03 MaxDP=8.23D-01 DE=-3.91D+00 OVMax= 7.47D-01

 Cycle   5  Pass 1  IDiag  1:
 E= -996.242151317508     Delta-E=       -1.742971255608 Rises=F Damp=F
 DIIS: error= 1.08D-02 at cycle   5 NSaved=   5.
 NSaved= 5 IEnMin= 5 EnMin= -996.242151317508     IErMin= 5 ErrMin= 1.08D-02
 ErrMax= 1.08D-02  0.00D+00 EMaxC= 1.00D-01 BMatC= 4.77D-02 BMatP= 1.76D-01
 IDIUse=3 WtCom= 8.92D-01 WtEn= 1.08D-01
 Coeff-Com:  0.347D-01 0.287D+00 0.388D-01 0.624D-01 0.577D+00
 Coeff-En:   0.000D+00 0.000D+00 0.000D+00 0.000D+00 0.100D+01
 Coeff:      0.310D-01 0.256D+00 0.347D-01 0.556D-01 0.623D+00
 Gap=     0.117 Goal=   None    Shift=    0.000
 RMSDP=2.62D-03 MaxDP=2.14D-01 DE=-1.74D+00 OVMax= 1.55D-01

 Cycle   6  Pass 1  IDiag  1:
 E= -996.215395663345     Delta-E=        0.026755654163 Rises=F Damp=F
 DIIS: error= 1.53D-02 at cycle   6 NSaved=   6.
 NSaved= 6 IEnMin= 5 EnMin= -996.242151317508     IErMin= 5 ErrMin= 1.08D-02
 ErrMax= 1.53D-02  0.00D+00 EMaxC= 1.00D-01 BMatC= 6.52D-02 BMatP= 4.77D-02
 IDIUse=2 WtCom= 0.00D+00 WtEn= 1.00D+00
 Coeff-En:   0.000D+00 0.000D+00 0.000D+00 0.000D+00 0.589D+00 0.411D+00
 Coeff:      0.000D+00 0.000D+00 0.000D+00 0.000D+00 0.589D+00 0.411D+00
 Gap=     0.056 Goal=   None    Shift=    0.000
 RMSDP=2.20D-03 MaxDP=1.47D-01 DE= 2.68D-02 OVMax= 1.30D-01

 Cycle   7  Pass 1  IDiag  1:
 E= -996.278409773205     Delta-E=       -0.063014109860 Rises=F Damp=F
 DIIS: error= 7.88D-03 at cycle   7 NSaved=   7.
 NSaved= 7 IEnMin= 7 EnMin= -996.278409773205     IErMin= 7 ErrMin= 7.88D-03
 ErrMax= 7.88D-03  0.00D+00 EMaxC= 1.00D-01 BMatC= 1.93D-02 BMatP= 4.77D-02
 IDIUse=3 WtCom= 9.21D-01 WtEn= 7.88D-02
 EnCoef did     3 forward-backward iterations
 Coeff-Com: -0.556D-02 0.339D-01 0.862D-02-0.579D-02 0.334D+00 0.257D+00
 Coeff-Com:  0.377D+00
 Coeff-En:   0.000D+00 0.000D+00 0.000D+00 0.000D+00 0.228D+00 0.125D+00
 Coeff-En:   0.647D+00
 Coeff:     -0.512D-02 0.313D-01 0.794D-02-0.534D-02 0.326D+00 0.246D+00
 Coeff:      0.399D+00
 Gap=     0.075 Goal=   None    Shift=    0.000
 RMSDP=9.55D-04 MaxDP=3.00D-02 DE=-6.30D-02 OVMax= 6.55D-02

 Cycle   8  Pass 1  IDiag  1:
 E= -996.299935057735     Delta-E=       -0.021525284530 Rises=F Damp=F
 DIIS: error= 2.71D-03 at cycle   8 NSaved=   8.
 NSaved= 8 IEnMin= 8 EnMin= -996.299935057735     IErMin= 8 ErrMin= 2.71D-03
 ErrMax= 2.71D-03  0.00D+00 EMaxC= 1.00D-01 BMatC= 1.76D-03 BMatP= 1.93D-02
 IDIUse=3 WtCom= 9.73D-01 WtEn= 2.71D-02
 Coeff-Com: -0.793D-03 0.898D-02 0.109D-02-0.774D-02 0.139D+00 0.868D-01
 Coeff-Com:  0.248D+00 0.524D+00
 Coeff-En:   0.000D+00 0.000D+00 0.000D+00 0.000D+00 0.000D+00 0.000D+00
 Coeff-En:   0.338D-01 0.966D+00
 Coeff:     -0.772D-03 0.874D-02 0.106D-02-0.753D-02 0.136D+00 0.844D-01
 Coeff:      0.242D+00 0.536D+00
 Gap=     0.074 Goal=   None    Shift=    0.000
 RMSDP=2.21D-04 MaxDP=7.23D-03 DE=-2.15D-02 OVMax= 1.48D-02

 Cycle   9  Pass 1  IDiag  1:
 E= -996.301765549692     Delta-E=       -0.001830491957 Rises=F Damp=F
 DIIS: error= 5.44D-04 at cycle   9 NSaved=   9.
 NSaved= 9 IEnMin= 9 EnMin= -996.301765549692     IErMin= 9 ErrMin= 5.44D-04
 ErrMax= 5.44D-04  0.00D+00 EMaxC= 1.00D-01 BMatC= 1.22D-04 BMatP= 1.76D-03
 IDIUse=3 WtCom= 9.95D-01 WtEn= 5.44D-03
 Coeff-Com:  0.944D-03 0.129D-02-0.100D-03-0.463D-02 0.315D-01 0.123D-01
 Coeff-Com:  0.758D-01 0.274D+00 0.609D+00
 Coeff-En:   0.000D+00 0.000D+00 0.000D+00 0.000D+00 0.000D+00 0.000D+00
 Coeff-En:   0.000D+00 0.000D+00 0.100D+01
 Coeff:      0.938D-03 0.128D-02-0.998D-04-0.461D-02 0.314D-01 0.122D-01
 Coeff:      0.754D-01 0.273D+00 0.611D+00
 Gap=     0.075 Goal=   None    Shift=    0.000
 RMSDP=7.47D-05 MaxDP=1.66D-03 DE=-1.83D-03 OVMax= 4.80D-03

 Cycle  10  Pass 1  IDiag  1:
 E= -996.301885795443     Delta-E=       -0.000120245752 Rises=F Damp=F
 DIIS: error= 2.16D-04 at cycle  10 NSaved=  10.
 NSaved=10 IEnMin=10 EnMin= -996.301885795443     IErMin=10 ErrMin= 2.16D-04
 ErrMax= 2.16D-04  0.00D+00 EMaxC= 1.00D-01 BMatC= 2.19D-05 BMatP= 1.22D-04
 IDIUse=3 WtCom= 9.98D-01 WtEn= 2.16D-03
 Coeff-Com:  0.653D-03 0.416D-03-0.228D-03-0.182D-02 0.108D-02-0.120D-02
 Coeff-Com:  0.184D-02 0.518D-01 0.331D+00 0.617D+00
 Coeff-En:   0.000D+00 0.000D+00 0.000D+00 0.000D+00 0.000D+00 0.000D+00
 Coeff-En:   0.000D+00 0.000D+00 0.104D+00 0.896D+00
 Coeff:      0.651D-03 0.415D-03-0.227D-03-0.182D-02 0.108D-02-0.119D-02
 Coeff:      0.183D-02 0.517D-01 0.330D+00 0.617D+00
 Gap=     0.076 Goal=   None    Shift=    0.000
 RMSDP=3.04D-05 MaxDP=1.81D-03 DE=-1.20D-04 OVMax= 2.09D-03

 Cycle  11  Pass 1  IDiag  1:
 E= -996.301909601926     Delta-E=       -0.000023806483 Rises=F Damp=F
 DIIS: error= 1.27D-04 at cycle  11 NSaved=  11.
 NSaved=11 IEnMin=11 EnMin= -996.301909601926     IErMin=11 ErrMin= 1.27D-04
 ErrMax= 1.27D-04  0.00D+00 EMaxC= 1.00D-01 BMatC= 3.11D-06 BMatP= 2.19D-05
 IDIUse=3 WtCom= 9.99D-01 WtEn= 1.27D-03
 Coeff-Com:  0.233D-03 0.687D-04 0.428D-04-0.384D-03-0.961D-03-0.311D-03
 Coeff-Com: -0.590D-02-0.911D-02 0.867D-01 0.331D+00 0.598D+00
 Coeff-En:   0.000D+00 0.000D+00 0.000D+00 0.000D+00 0.000D+00 0.000D+00
 Coeff-En:   0.000D+00 0.000D+00 0.000D+00 0.524D-01 0.948D+00
 Coeff:      0.233D-03 0.686D-04 0.428D-04-0.383D-03-0.960D-03-0.311D-03
 Coeff:     -0.589D-02-0.909D-02 0.866D-01 0.331D+00 0.599D+00
 Gap=     0.076 Goal=   None    Shift=    0.000
 RMSDP=1.20D-05 MaxDP=3.41D-04 DE=-2.38D-05 OVMax= 8.84D-04

 Cycle  12  Pass 1  IDiag  1:
 E= -996.301912512873     Delta-E=       -0.000002910947 Rises=F Damp=F
 DIIS: error= 5.91D-05 at cycle  12 NSaved=  12.
 NSaved=12 IEnMin=12 EnMin= -996.301912512873     IErMin=12 ErrMin= 5.91D-05
 ErrMax= 5.91D-05  0.00D+00 EMaxC= 1.00D-01 BMatC= 5.89D-07 BMatP= 3.11D-06
 IDIUse=1 WtCom= 1.00D+00 WtEn= 0.00D+00
 Coeff-Com:  0.730D-04-0.863D-04 0.111D-03-0.495D-04-0.761D-03-0.328D-03
 Coeff-Com: -0.316D-02-0.835D-02 0.119D-01 0.116D+00 0.353D+00 0.532D+00
 Coeff:      0.730D-04-0.863D-04 0.111D-03-0.495D-04-0.761D-03-0.328D-03
 Coeff:     -0.316D-02-0.835D-02 0.119D-01 0.116D+00 0.353D+00 0.532D+00
 Gap=     0.076 Goal=   None    Shift=    0.000
 RMSDP=4.36D-06 MaxDP=1.54D-04 DE=-2.91D-06 OVMax= 2.74D-04

 Cycle  13  Pass 1  IDiag  1:
 E= -996.301913170137     Delta-E=       -0.000000657263 Rises=F Damp=F
 DIIS: error= 1.14D-05 at cycle  13 NSaved=  13.
 NSaved=13 IEnMin=13 EnMin= -996.301913170137     IErMin=13 ErrMin= 1.14D-05
 ErrMax= 1.14D-05  0.00D+00 EMaxC= 1.00D-01 BMatC= 5.46D-08 BMatP= 5.89D-07
 IDIUse=1 WtCom= 1.00D+00 WtEn= 0.00D+00
 Coeff-Com:  0.273D-04-0.643D-04 0.567D-04-0.830D-05-0.205D-03-0.242D-03
 Coeff-Com: -0.134D-02-0.307D-02-0.479D-02 0.263D-01 0.117D+00 0.229D+00
 Coeff-Com:  0.637D+00
 Coeff:      0.273D-04-0.643D-04 0.567D-04-0.830D-05-0.205D-03-0.242D-03
 Coeff:     -0.134D-02-0.307D-02-0.479D-02 0.263D-01 0.117D+00 0.229D+00
 Coeff:      0.637D+00
 Gap=     0.076 Goal=   None    Shift=    0.000
 RMSDP=1.43D-06 MaxDP=3.08D-05 DE=-6.57D-07 OVMax= 1.08D-04

 Cycle  14  Pass 1  IDiag  1:
 E= -996.301913229067     Delta-E=       -0.000000058930 Rises=F Damp=F
 DIIS: error= 4.79D-06 at cycle  14 NSaved=  14.
 NSaved=14 IEnMin=14 EnMin= -996.301913229067     IErMin=14 ErrMin= 4.79D-06
 ErrMax= 4.79D-06  0.00D+00 EMaxC= 1.00D-01 BMatC= 1.18D-08 BMatP= 5.46D-08
 IDIUse=1 WtCom= 1.00D+00 WtEn= 0.00D+00
 Coeff-Com:  0.844D-05-0.137D-04 0.936D-05-0.610D-05 0.185D-03-0.204D-04
 Coeff-Com: -0.232D-03-0.111D-03-0.572D-02-0.496D-02-0.229D-02 0.468D-02
 Coeff-Com:  0.319D+00 0.689D+00
 Coeff:      0.844D-05-0.137D-04 0.936D-05-0.610D-05 0.185D-03-0.204D-04
 Coeff:     -0.232D-03-0.111D-03-0.572D-02-0.496D-02-0.229D-02 0.468D-02
 Coeff:      0.319D+00 0.689D+00
 Gap=     0.076 Goal=   None    Shift=    0.000
 RMSDP=7.67D-07 MaxDP=1.87D-05 DE=-5.89D-08 OVMax= 7.96D-05

 Cycle  15  Pass 1  IDiag  1:
 E= -996.301913244694     Delta-E=       -0.000000015627 Rises=F Damp=F
 DIIS: error= 2.36D-06 at cycle  15 NSaved=  15.
 NSaved=15 IEnMin=15 EnMin= -996.301913244694     IErMin=15 ErrMin= 2.36D-06
 ErrMax= 2.36D-06  0.00D+00 EMaxC= 1.00D-01 BMatC= 1.16D-09 BMatP= 1.18D-08
 IDIUse=1 WtCom= 1.00D+00 WtEn= 0.00D+00
 Coeff-Com:  0.301D-05-0.228D-06 0.670D-06-0.409D-05 0.128D-03 0.264D-04
 Coeff-Com: -0.458D-04 0.592D-04-0.305D-02-0.416D-02-0.783D-02-0.128D-01
 Coeff-Com:  0.107D+00 0.356D+00 0.564D+00
 Coeff:      0.301D-05-0.228D-06 0.670D-06-0.409D-05 0.128D-03 0.264D-04
 Coeff:     -0.458D-04 0.592D-04-0.305D-02-0.416D-02-0.783D-02-0.128D-01
 Coeff:      0.107D+00 0.356D+00 0.564D+00
 Gap=     0.076 Goal=   None    Shift=    0.000
 RMSDP=2.30D-07 MaxDP=5.66D-06 DE=-1.56D-08 OVMax= 2.21D-05

 Cycle  16  Pass 1  IDiag  1:
 E= -996.301913246043     Delta-E=       -0.000000001349 Rises=F Damp=F
 DIIS: error= 6.61D-07 at cycle  16 NSaved=  16.
 NSaved=16 IEnMin=16 EnMin= -996.301913246043     IErMin=16 ErrMin= 6.61D-07
 ErrMax= 6.61D-07  0.00D+00 EMaxC= 1.00D-01 BMatC= 1.94D-10 BMatP= 1.16D-09
 IDIUse=1 WtCom= 1.00D+00 WtEn= 0.00D+00
 Coeff-Com:  0.433D-06 0.309D-05-0.763D-06-0.171D-05 0.402D-04 0.196D-04
 Coeff-Com: -0.105D-04-0.302D-04-0.109D-02-0.143D-02-0.226D-02-0.453D-02
 Coeff-Com:  0.137D-01 0.946D-01 0.322D+00 0.579D+00
 Coeff:      0.433D-06 0.309D-05-0.763D-06-0.171D-05 0.402D-04 0.196D-04
 Coeff:     -0.105D-04-0.302D-04-0.109D-02-0.143D-02-0.226D-02-0.453D-02
 Coeff:      0.137D-01 0.946D-01 0.322D+00 0.579D+00
 Gap=     0.076 Goal=   None    Shift=    0.000
 RMSDP=8.37D-08 MaxDP=4.06D-06 DE=-1.35D-09 OVMax= 8.42D-06

 Cycle  17  Pass 1  IDiag  1:
 E= -996.301913246271     Delta-E=       -0.000000000228 Rises=F Damp=F
 DIIS: error= 1.16D-07 at cycle  17 NSaved=  17.
 NSaved=17 IEnMin=17 EnMin= -996.301913246271     IErMin=17 ErrMin= 1.16D-07
 ErrMax= 1.16D-07  0.00D+00 EMaxC= 1.00D-01 BMatC= 7.91D-12 BMatP= 1.94D-10
 IDIUse=1 WtCom= 1.00D+00 WtEn= 0.00D+00
 Coeff-Com:  0.371D-07 0.573D-06-0.229D-06-0.408D-06 0.203D-05-0.204D-06
 Coeff-Com:  0.531D-05-0.955D-05-0.132D-03-0.907D-04 0.490D-03 0.755D-03
 Coeff-Com: -0.537D-03 0.817D-02 0.388D-01 0.123D+00 0.829D+00
 Coeff:      0.371D-07 0.573D-06-0.229D-06-0.408D-06 0.203D-05-0.204D-06
 Coeff:      0.531D-05-0.955D-05-0.132D-03-0.907D-04 0.490D-03 0.755D-03
 Coeff:     -0.537D-03 0.817D-02 0.388D-01 0.123D+00 0.829D+00
 Gap=     0.076 Goal=   None    Shift=    0.000
 RMSDP=2.78D-08 MaxDP=1.03D-06 DE=-2.28D-10 OVMax= 3.19D-06

 Cycle  18  Pass 1  IDiag  1:
 E= -996.301913246280     Delta-E=       -0.000000000008 Rises=F Damp=F
 DIIS: error= 8.26D-08 at cycle  18 NSaved=  18.
 NSaved=18 IEnMin=18 EnMin= -996.301913246280     IErMin=18 ErrMin= 8.26D-08
 ErrMax= 8.26D-08  0.00D+00 EMaxC= 1.00D-01 BMatC= 1.76D-12 BMatP= 7.91D-12
 IDIUse=1 WtCom= 1.00D+00 WtEn= 0.00D+00
 Coeff-Com: -0.767D-07 0.117D-06-0.411D-07-0.488D-07-0.243D-05-0.183D-05
 Coeff-Com:  0.595D-05-0.573D-06 0.582D-04 0.128D-03 0.603D-03 0.103D-02
 Coeff-Com: -0.194D-02-0.601D-02-0.161D-01-0.652D-02 0.408D+00 0.621D+00
 Coeff:     -0.767D-07 0.117D-06-0.411D-07-0.488D-07-0.243D-05-0.183D-05
 Coeff:      0.595D-05-0.573D-06 0.582D-04 0.128D-03 0.603D-03 0.103D-02
 Coeff:     -0.194D-02-0.601D-02-0.161D-01-0.652D-02 0.408D+00 0.621D+00
 Gap=     0.076 Goal=   None    Shift=    0.000
 RMSDP=1.18D-08 MaxDP=4.29D-07 DE=-8.41D-12 OVMax= 1.48D-06

 Cycle  19  Pass 1  IDiag  1:
 E= -996.301913246277     Delta-E=        0.000000000003 Rises=F Damp=F
 DIIS: error= 1.56D-08 at cycle  19 NSaved=  19.
 NSaved=19 IEnMin=18 EnMin= -996.301913246280     IErMin=19 ErrMin= 1.56D-08
 ErrMax= 1.56D-08  0.00D+00 EMaxC= 1.00D-01 BMatC= 1.72D-13 BMatP= 1.76D-12
 IDIUse=1 WtCom= 1.00D+00 WtEn= 0.00D+00
 Coeff-Com: -0.394D-07-0.258D-08 0.221D-07 0.453D-07-0.110D-05-0.896D-06
 Coeff-Com:  0.145D-05 0.269D-05 0.352D-04 0.391D-04 0.890D-04 0.143D-03
 Coeff-Com: -0.334D-03-0.199D-02-0.954D-02-0.206D-01 0.159D-01 0.250D+00
 Coeff-Com:  0.767D+00
 Coeff:     -0.394D-07-0.258D-08 0.221D-07 0.453D-07-0.110D-05-0.896D-06
 Coeff:      0.145D-05 0.269D-05 0.352D-04 0.391D-04 0.890D-04 0.143D-03
 Coeff:     -0.334D-03-0.199D-02-0.954D-02-0.206D-01 0.159D-01 0.250D+00
 Coeff:      0.767D+00
 Gap=     0.076 Goal=   None    Shift=    0.000
 RMSDP=6.08D-09 MaxDP=2.61D-07 DE= 2.96D-12 OVMax= 9.14D-07

 SCF Done:  E(RB3LYP) =  -996.301913246     A.U. after   19 cycles
            NFock= 19  Conv=0.61D-08     -V/T= 2.1069
 KE= 9.000672689903D+02 PE=-4.201371873527D+03 EE= 1.354185168557D+03
 Leave Link  502 at Fri Jun 21 12:45:09 2019, MaxMem= 16106127360 cpu:       420.4
 (Enter /home/mmm0534/bin/g09E/l601.exe)
 Copying SCF densities to generalized density rwf, IOpCl= 0 IROHF=0.

 **********************************************************************

            Population analysis using the SCF density.

 **********************************************************************

 Alpha  occ. eigenvalues --  -88.86195 -10.22340 -10.20180 -10.20015 -10.19656
 Alpha  occ. eigenvalues --  -10.19580 -10.19488 -10.19474 -10.19178 -10.19166
 Alpha  occ. eigenvalues --  -10.19059 -10.19047 -10.19042  -7.95438  -5.92371
 Alpha  occ. eigenvalues --   -5.92002  -5.91336  -4.17538  -2.36538  -2.34593
 Alpha  occ. eigenvalues --   -2.34381  -0.86621  -0.84596  -0.78941  -0.74756
 Alpha  occ. eigenvalues --   -0.74110  -0.73639  -0.68532  -0.62135  -0.61042
 Alpha  occ. eigenvalues --   -0.58617  -0.57375  -0.53253  -0.48766  -0.47719
 Alpha  occ. eigenvalues --   -0.46785  -0.43884  -0.43830  -0.43211  -0.42433
 Alpha  occ. eigenvalues --   -0.41475  -0.39408  -0.38052  -0.37101  -0.36579
 Alpha  occ. eigenvalues --   -0.35882  -0.35210  -0.34949  -0.33363  -0.32313
 Alpha  occ. eigenvalues --   -0.32239  -0.32072  -0.30397  -0.27623  -0.26286
 Alpha  occ. eigenvalues --   -0.25592  -0.25224  -0.20488
 Alpha virt. eigenvalues --   -0.12893  -0.04382  -0.02296  -0.01570  -0.00443
 Alpha virt. eigenvalues --    0.00673   0.03118   0.05844   0.07122   0.07481
 Alpha virt. eigenvalues --    0.08388   0.09844   0.11639   0.11894   0.12785
 Alpha virt. eigenvalues --    0.13580   0.14270   0.15854   0.18364   0.20029
 Alpha virt. eigenvalues --    0.22353   0.23674   0.25738   0.26242   0.26280
 Alpha virt. eigenvalues --    0.28838   0.29548   0.30945   0.33920   0.34665
 Alpha virt. eigenvalues --    0.35121   0.37363   0.38271   0.39606   0.40484
 Alpha virt. eigenvalues --    0.41263   0.41430   0.42326   0.42842   0.43792
 Alpha virt. eigenvalues --    0.45160   0.45579   0.45601   0.46610   0.46875
 Alpha virt. eigenvalues --    0.47567   0.48346   0.48751   0.49048   0.50330
 Alpha virt. eigenvalues --    0.52176   0.52597   0.52839   0.55000   0.56156
 Alpha virt. eigenvalues --    0.57457   0.57956   0.59902   0.59996   0.61288
 Alpha virt. eigenvalues --    0.63035   0.64192   0.64327   0.65252   0.65682
 Alpha virt. eigenvalues --    0.66430   0.67255   0.67551   0.68055   0.69346
 Alpha virt. eigenvalues --    0.69760   0.70137   0.70369   0.71207   0.72029
 Alpha virt. eigenvalues --    0.72480   0.73467   0.74321   0.75050   0.76238
 Alpha virt. eigenvalues --    0.76867   0.77986   0.79417   0.79878   0.81193
 Alpha virt. eigenvalues --    0.81442   0.83597   0.85529   0.87064   0.87149
 Alpha virt. eigenvalues --    0.90921   0.94531   0.96760   0.97658   1.05455
 Alpha virt. eigenvalues --    1.06244   1.08220   1.10120   1.15315   1.18150
 Alpha virt. eigenvalues --    1.20330   1.20993   1.22378   1.24417   1.24741
 Alpha virt. eigenvalues --    1.25092   1.25593   1.26501   1.28894   1.28940
 Alpha virt. eigenvalues --    1.30235   1.30933   1.31876   1.32387   1.36839
 Alpha virt. eigenvalues --    1.39076   1.49449   1.50142   1.51365   1.52433
 Alpha virt. eigenvalues --    1.53584   1.53881   1.54515   1.55459   1.55960
 Alpha virt. eigenvalues --    1.63066   1.64364   1.64874   1.66551   1.69277
 Alpha virt. eigenvalues --    1.69454   1.70413   1.71630   1.73996   1.74471
 Alpha virt. eigenvalues --    1.75086   1.75950   1.75993   1.76453   1.77568
 Alpha virt. eigenvalues --    1.77960   1.79290   1.83053   1.84109   1.85666
 Alpha virt. eigenvalues --    1.87214   1.87826   1.91685   1.92978   1.94337
 Alpha virt. eigenvalues --    1.95894   1.96364   1.97735   1.98348   1.98599
 Alpha virt. eigenvalues --    2.01228   2.04245   2.08029   2.11286   2.11628
 Alpha virt. eigenvalues --    2.12983   2.14303   2.15657   2.15982   2.20059
 Alpha virt. eigenvalues --    2.21084   2.22956   2.30030   2.30712   2.30988
 Alpha virt. eigenvalues --    2.31483   2.31847   2.33761   2.34631   2.36185
 Alpha virt. eigenvalues --    2.36748   2.39174   2.48423   2.56600   2.57360
 Alpha virt. eigenvalues --    2.58444   2.60623   2.61146   2.63116   2.65313
 Alpha virt. eigenvalues --    2.66988   2.68903   2.72342   2.73348   2.73774
 Alpha virt. eigenvalues --    2.85576   2.85974   2.88822   2.89424   2.90648
 Alpha virt. eigenvalues --    2.94498   3.06186   3.07933   3.12443   3.16387
 Alpha virt. eigenvalues --    3.33472   3.50439   3.65650  42.45925 199.75595
          Condensed to atoms (all electrons):
               1          2          3          4          5          6
     1  C    5.123520   0.250286   0.101447  -0.158540   0.101497   0.250252
     2  C    0.250286   5.066978   0.275648   0.096814  -0.147768   0.107778
     3  C    0.101447   0.275648   5.234410   0.268105   0.016911  -0.147763
     4  C   -0.158540   0.096814   0.268105   5.372987   0.268467   0.097045
     5  C    0.101497  -0.147768   0.016911   0.268467   5.234813   0.276053
     6  C    0.250252   0.107778  -0.147763   0.097045   0.276053   5.067160
     7  C   -0.002106   0.020106  -0.094042   0.227091  -0.094059   0.020047
     8  C   -0.000093  -0.000084   0.015539  -0.091157  -0.029076   0.000683
     9  C    0.000005  -0.000006  -0.000012   0.017819   0.000999  -0.000081
    10  C   -0.000001   0.000005  -0.000125  -0.000980  -0.000156   0.000005
    11  C    0.000005  -0.000085   0.000823   0.018485   0.000005  -0.000006
    12  C   -0.000088   0.000725  -0.028379  -0.091358   0.015182  -0.000090
    13  S    0.000000  -0.000000  -0.000000   0.000018  -0.000000  -0.000000
    14  Au   0.000000  -0.000000   0.000001  -0.000027   0.000002   0.000000
    15  H   -0.000096   0.000039  -0.000676  -0.032139   0.004728   0.001320
    16  H   -0.000094   0.001369   0.004965  -0.032127  -0.000709   0.000037
    17  H    0.016054  -0.073063   0.435578  -0.058752   0.016534  -0.002046
    18  H    0.016079  -0.002049   0.016560  -0.058347   0.435172  -0.073365
    19  H    0.000000  -0.000000   0.000005  -0.000369   0.000044  -0.000001
    20  H    0.000000  -0.000000   0.000051  -0.000426   0.000006  -0.000000
    21  H   -0.079643   0.436615  -0.069890   0.017196  -0.001644   0.015232
    22  H   -0.079655   0.015234  -0.001641   0.017231  -0.069986   0.436444
    23  H    0.439566  -0.074870   0.015255  -0.001375   0.015267  -0.074933
               7          8          9         10         11         12
     1  C   -0.002106  -0.000093   0.000005  -0.000001   0.000005  -0.000088
     2  C    0.020106  -0.000084  -0.000006   0.000005  -0.000085   0.000725
     3  C   -0.094042   0.015539  -0.000012  -0.000125   0.000823  -0.028379
     4  C    0.227091  -0.091157   0.017819  -0.000980   0.018485  -0.091358
     5  C   -0.094059  -0.029076   0.000999  -0.000156   0.000005   0.015182
     6  C    0.020047   0.000683  -0.000081   0.000005  -0.000006  -0.000090
     7  C    5.436780   0.254112   0.093480  -0.176089   0.092698   0.256290
     8  C    0.254112   5.174229   0.325760   0.100044  -0.127398   0.008986
     9  C    0.093480   0.325760   5.032345   0.263874   0.087533  -0.132116
    10  C   -0.176089   0.100044   0.263874   5.383498   0.253474   0.105986
    11  C    0.092698  -0.127398   0.087533   0.253474   5.009235   0.341994
    12  C    0.256290   0.008986  -0.132116   0.105986   0.341994   5.152018
    13  S    0.000917   0.003323  -0.053403   0.226099  -0.059557   0.002444
    14  Au   0.000293   0.001277  -0.008359  -0.033514   0.003206  -0.000368
    15  H   -0.065002   0.437550  -0.071509   0.018754  -0.002316   0.016804
    16  H   -0.062887   0.016831  -0.002167   0.017781  -0.075922   0.441277
    17  H   -0.033280  -0.000787   0.000035  -0.000094   0.001392   0.005342
    18  H   -0.033619   0.005176   0.001487  -0.000103   0.000037  -0.000812
    19  H    0.017038  -0.057336   0.430168  -0.084700   0.013660  -0.001217
    20  H    0.017151  -0.001641   0.014677  -0.087366   0.428781  -0.053389
    21  H   -0.000395   0.000006  -0.000000   0.000000  -0.000001   0.000032
    22  H   -0.000397   0.000034  -0.000001   0.000000  -0.000000   0.000006
    23  H    0.000034   0.000000   0.000000   0.000000   0.000000   0.000000
              13         14         15         16         17         18
     1  C    0.000000   0.000000  -0.000096  -0.000094   0.016054   0.016079
     2  C   -0.000000  -0.000000   0.000039   0.001369  -0.073063  -0.002049
     3  C   -0.000000   0.000001  -0.000676   0.004965   0.435578   0.016560
     4  C    0.000018  -0.000027  -0.032139  -0.032127  -0.058752  -0.058347
     5  C   -0.000000   0.000002   0.004728  -0.000709   0.016534   0.435172
     6  C   -0.000000   0.000000   0.001320   0.000037  -0.002046  -0.073365
     7  C    0.000917   0.000293  -0.065002  -0.062887  -0.033280  -0.033619
     8  C    0.003323   0.001277   0.437550   0.016831  -0.000787   0.005176
     9  C   -0.053403  -0.008359  -0.071509  -0.002167   0.000035   0.001487
    10  C    0.226099  -0.033514   0.018754   0.017781  -0.000094  -0.000103
    11  C   -0.059557   0.003206  -0.002316  -0.075922   0.001392   0.000037
    12  C    0.002444  -0.000368   0.016804   0.441277   0.005342  -0.000812
    13  S   15.682517   0.281981  -0.000152  -0.000205   0.000000  -0.000000
    14  Au   0.281981  18.643242  -0.000191   0.000023  -0.000000   0.000006
    15  H   -0.000152  -0.000191   0.747317  -0.000268  -0.000031  -0.006276
    16  H   -0.000205   0.000023  -0.000268   0.740591  -0.006069  -0.000032
    17  H    0.000000  -0.000000  -0.000031  -0.006069   0.745425  -0.000236
    18  H   -0.000000   0.000006  -0.006276  -0.000032  -0.000236   0.746973
    19  H   -0.010446   0.016630  -0.017128   0.000027   0.000000   0.000077
    20  H   -0.001711   0.000152   0.000034  -0.016321   0.000093   0.000000
    21  H   -0.000000   0.000000   0.000000   0.000080  -0.015656   0.000034
    22  H   -0.000000   0.000000   0.000083   0.000000   0.000034  -0.015703
    23  H   -0.000000  -0.000000  -0.000000  -0.000000  -0.000336  -0.000337
              19         20         21         22         23
     1  C    0.000000   0.000000  -0.079643  -0.079655   0.439566
     2  C   -0.000000  -0.000000   0.436615   0.015234  -0.074870
     3  C    0.000005   0.000051  -0.069890  -0.001641   0.015255
     4  C   -0.000369  -0.000426   0.017196   0.017231  -0.001375
     5  C    0.000044   0.000006  -0.001644  -0.069986   0.015267
     6  C   -0.000001  -0.000000   0.015232   0.436444  -0.074933
     7  C    0.017038   0.017151  -0.000395  -0.000397   0.000034
     8  C   -0.057336  -0.001641   0.000006   0.000034   0.000000
     9  C    0.430168   0.014677  -0.000000  -0.000001   0.000000
    10  C   -0.084700  -0.087366   0.000000   0.000000   0.000000
    11  C    0.013660   0.428781  -0.000001  -0.000000   0.000000
    12  C   -0.001217  -0.053389   0.000032   0.000006   0.000000
    13  S   -0.010446  -0.001711  -0.000000  -0.000000  -0.000000
    14  Au   0.016630   0.000152   0.000000   0.000000  -0.000000
    15  H   -0.017128   0.000034   0.000000   0.000083  -0.000000
    16  H    0.000027  -0.016321   0.000080   0.000000  -0.000000
    17  H    0.000000   0.000093  -0.015656   0.000034  -0.000336
    18  H    0.000077   0.000000   0.000034  -0.015703  -0.000337
    19  H    0.713041  -0.000305   0.000000  -0.000000  -0.000000
    20  H   -0.000305   0.720848  -0.000000   0.000000  -0.000000
    21  H    0.000000  -0.000000   0.731233  -0.000346  -0.013182
    22  H   -0.000000   0.000000  -0.000346   0.732056  -0.013192
    23  H   -0.000000  -0.000000  -0.013182  -0.013192   0.725420
 Mulliken charges:
               1
     1  C    0.021604
     2  C    0.026329
     3  C   -0.042769
     4  C    0.124338
     5  C   -0.042284
     6  C    0.026228
     7  C    0.125840
     8  C   -0.035977
     9  C   -0.000528
    10  C    0.013608
    11  C    0.013956
    12  C   -0.039268
    13  S   -0.071824
    14  Au   0.095646
    15  H   -0.030842
    16  H   -0.026179
    17  H   -0.030138
    18  H   -0.030723
    19  H   -0.019188
    20  H   -0.020635
    21  H   -0.019673
    22  H   -0.020201
    23  H   -0.017318
 Sum of Mulliken charges =  -0.00000
 Mulliken charges with hydrogens summed into heavy atoms:
               1
     1  C    0.004286
     2  C    0.006656
     3  C   -0.072907
     4  C    0.124338
     5  C   -0.073007
     6  C    0.006027
     7  C    0.125840
     8  C   -0.066819
     9  C   -0.019717
    10  C    0.013608
    11  C   -0.006679
    12  C   -0.065447
    13  S   -0.071824
    14  Au   0.095646
 Electronic spatial extent (au):  <R**2>=           6400.0081
 Charge=             -0.0000 electrons
 Dipole moment (field-independent basis, Debye):
    X=              1.7948    Y=             -0.7513    Z=             -0.0165  Tot=              1.9458
 Quadrupole moment (field-independent basis, Debye-Ang):
   XX=            -80.9540   YY=           -104.9639   ZZ=           -112.3053
   XY=              5.6211   XZ=              0.9058   YZ=             -0.6796
 Traceless Quadrupole moment (field-independent basis, Debye-Ang):
   XX=             18.4538   YY=             -5.5562   ZZ=            -12.8976
   XY=              5.6211   XZ=              0.9058   YZ=             -0.6796
 Octapole moment (field-independent basis, Debye-Ang**2):
  XXX=           -141.1956  YYY=           -501.0519  ZZZ=              3.8244  XYY=            -65.8349
  XXY=            -84.9014  XXZ=              1.4057  XZZ=            -79.6644  YZZ=           -157.8069
  YYZ=             -1.2866  XYZ=              1.0230
 Hexadecapole moment (field-independent basis, Debye-Ang**3):
 XXXX=          -3314.7785 YYYY=          -6318.1826 ZZZZ=           -139.1419 XXXY=          -1547.9681
 XXXZ=             -3.9589 YYYX=          -1952.7214 YYYZ=             16.9678 ZZZX=             -6.7350
 ZZZY=             29.0029 XXYY=          -1403.8604 XXZZ=           -735.8371 YYZZ=          -1131.7555
 XXYZ=              5.9342 YYXZ=             -0.0860 ZZXY=           -716.9467
 N-N= 9.508175227331D+02 E-N=-4.201371868293D+03  KE= 9.000672689903D+02
 No NMR shielding tensors so no spin-rotation constants.
 Leave Link  601 at Fri Jun 21 12:45:09 2019, MaxMem= 16106127360 cpu:         9.5
 (Enter /home/mmm0534/bin/g09E/l607.exe)
 ******************************Gaussian NBO Version 3.1******************************
             N A T U R A L   A T O M I C   O R B I T A L   A N D
          N A T U R A L   B O N D   O R B I T A L   A N A L Y S I S
 ******************************Gaussian NBO Version 3.1******************************
       /RESON  / : Allow strongly delocalized NBO set

 Analyzing the SCF density

 Job title: comment                                                         

 Storage needed:    209380 in NPA,    278026 in NBO (********** available)


 NATURAL POPULATIONS:  Natural atomic orbital occupancies 
                                                          
   NAO  Atom  No  lang   Type(AO)    Occupancy      Energy
 ----------------------------------------------------------
     1    C    1  S      Cor( 1S)     1.99893     -10.05923
     2    C    1  S      Val( 2S)     0.94505      -0.13728
     3    C    1  S      Ryd( 3S)     0.00122       0.56259
     4    C    1  px     Val( 2p)     1.10204      -0.04210
     5    C    1  px     Ryd( 3p)     0.00455       0.73420
     6    C    1  py     Val( 2p)     1.15988      -0.05062
     7    C    1  py     Ryd( 3p)     0.00549       0.91894
     8    C    1  pz     Val( 2p)     1.00118      -0.10259
     9    C    1  pz     Ryd( 3p)     0.00113       0.55826
    10    C    1  dxy    Ryd( 3d)     0.00076       2.49825
    11    C    1  dxz    Ryd( 3d)     0.00050       1.93260
    12    C    1  dyz    Ryd( 3d)     0.00041       1.92203
    13    C    1  dx2y2  Ryd( 3d)     0.00072       2.45275
    14    C    1  dz2    Ryd( 3d)     0.00039       2.22390

    15    C    2  S      Cor( 1S)     1.99893     -10.05982
    16    C    2  S      Val( 2S)     0.94145      -0.13529
    17    C    2  S      Ryd( 3S)     0.00119       0.57489
    18    C    2  px     Val( 2p)     1.19090      -0.05590
    19    C    2  px     Ryd( 3p)     0.00630       1.02469
    20    C    2  py     Val( 2p)     1.07146      -0.03642
    21    C    2  py     Ryd( 3p)     0.00406       0.64296
    22    C    2  pz     Val( 2p)     0.99497      -0.10253
    23    C    2  pz     Ryd( 3p)     0.00079       0.55865
    24    C    2  dxy    Ryd( 3d)     0.00069       2.43169
    25    C    2  dxz    Ryd( 3d)     0.00034       1.91209
    26    C    2  dyz    Ryd( 3d)     0.00061       1.94321
    27    C    2  dx2y2  Ryd( 3d)     0.00078       2.52778
    28    C    2  dz2    Ryd( 3d)     0.00039       2.22933

    29    C    3  S      Cor( 1S)     1.99892     -10.05677
    30    C    3  S      Val( 2S)     0.92722      -0.12724
    31    C    3  S      Ryd( 3S)     0.00171       0.57593
    32    C    3  px     Val( 2p)     1.09668      -0.03727
    33    C    3  px     Ryd( 3p)     0.00413       0.80834
    34    C    3  py     Val( 2p)     1.16318      -0.05634
    35    C    3  py     Ryd( 3p)     0.00491       1.00082
    36    C    3  pz     Val( 2p)     1.00158      -0.10448
    37    C    3  pz     Ryd( 3p)     0.00081       0.57024
    38    C    3  dxy    Ryd( 3d)     0.00074       2.54062
    39    C    3  dxz    Ryd( 3d)     0.00048       1.94447
    40    C    3  dyz    Ryd( 3d)     0.00039       1.91794
    41    C    3  dx2y2  Ryd( 3d)     0.00069       2.46418
    42    C    3  dz2    Ryd( 3d)     0.00040       2.22074

    43    C    4  S      Cor( 1S)     1.99885     -10.06461
    44    C    4  S      Val( 2S)     0.85048      -0.09592
    45    C    4  S      Ryd( 3S)     0.00176       0.57929
    46    C    4  px     Val( 2p)     1.10014      -0.05877
    47    C    4  px     Ryd( 3p)     0.00555       1.06514
    48    C    4  py     Val( 2p)     1.08580      -0.05485
    49    C    4  py     Ryd( 3p)     0.00496       1.09121
    50    C    4  pz     Val( 2p)     1.00118      -0.09831
    51    C    4  pz     Ryd( 3p)     0.00113       0.64040
    52    C    4  dxy    Ryd( 3d)     0.00081       2.43004
    53    C    4  dxz    Ryd( 3d)     0.00061       1.91455
    54    C    4  dyz    Ryd( 3d)     0.00065       1.90934
    55    C    4  dx2y2  Ryd( 3d)     0.00079       2.46807
    56    C    4  dz2    Ryd( 3d)     0.00041       2.20616

    57    C    5  S      Cor( 1S)     1.99892     -10.05692
    58    C    5  S      Val( 2S)     0.92708      -0.12736
    59    C    5  S      Ryd( 3S)     0.00171       0.57559
    60    C    5  px     Val( 2p)     1.18759      -0.05718
    61    C    5  px     Ryd( 3p)     0.00568       1.05845
    62    C    5  py     Val( 2p)     1.07210      -0.03681
    63    C    5  py     Ryd( 3p)     0.00335       0.75005
    64    C    5  pz     Val( 2p)     1.00220      -0.10470
    65    C    5  pz     Ryd( 3p)     0.00080       0.57000
    66    C    5  dxy    Ryd( 3d)     0.00065       2.45835
    67    C    5  dxz    Ryd( 3d)     0.00032       1.91679
    68    C    5  dyz    Ryd( 3d)     0.00056       1.94535
    69    C    5  dx2y2  Ryd( 3d)     0.00078       2.54650
    70    C    5  dz2    Ryd( 3d)     0.00040       2.22054

    71    C    6  S      Cor( 1S)     1.99893     -10.05993
    72    C    6  S      Val( 2S)     0.94137      -0.13539
    73    C    6  S      Ryd( 3S)     0.00119       0.57467
    74    C    6  px     Val( 2p)     1.10209      -0.04254
    75    C    6  px     Ryd( 3p)     0.00466       0.74210
    76    C    6  py     Val( 2p)     1.16020      -0.05008
    77    C    6  py     Ryd( 3p)     0.00569       0.92506
    78    C    6  pz     Val( 2p)     0.99540      -0.10269
    79    C    6  pz     Ryd( 3p)     0.00079       0.55847
    80    C    6  dxy    Ryd( 3d)     0.00076       2.50477
    81    C    6  dxz    Ryd( 3d)     0.00054       1.93508
    82    C    6  dyz    Ryd( 3d)     0.00041       1.92001
    83    C    6  dx2y2  Ryd( 3d)     0.00072       2.45450
    84    C    6  dz2    Ryd( 3d)     0.00039       2.22918

    85    C    7  S      Cor( 1S)     1.99884     -10.06301
    86    C    7  S      Val( 2S)     0.84758      -0.09439
    87    C    7  S      Ryd( 3S)     0.00179       0.58129
    88    C    7  px     Val( 2p)     1.09523      -0.05916
    89    C    7  px     Ryd( 3p)     0.00564       1.06097
    90    C    7  py     Val( 2p)     1.08536      -0.05545
    91    C    7  py     Ryd( 3p)     0.00492       1.09381
    92    C    7  pz     Val( 2p)     1.02319      -0.09795
    93    C    7  pz     Ryd( 3p)     0.00130       0.65010
    94    C    7  dxy    Ryd( 3d)     0.00078       2.41486
    95    C    7  dxz    Ryd( 3d)     0.00058       1.94956
    96    C    7  dyz    Ryd( 3d)     0.00064       1.93251
    97    C    7  dx2y2  Ryd( 3d)     0.00079       2.45675
    98    C    7  dz2    Ryd( 3d)     0.00043       2.18036

    99    C    8  S      Cor( 1S)     1.99892     -10.06046
   100    C    8  S      Val( 2S)     0.92388      -0.12715
   101    C    8  S      Ryd( 3S)     0.00158       0.58077
   102    C    8  px     Val( 2p)     1.09606      -0.04115
   103    C    8  px     Ryd( 3p)     0.00404       0.80685
   104    C    8  py     Val( 2p)     1.15652      -0.05822
   105    C    8  py     Ryd( 3p)     0.00506       0.99217
   106    C    8  pz     Val( 2p)     0.99572      -0.10500
   107    C    8  pz     Ryd( 3p)     0.00084       0.58288
   108    C    8  dxy    Ryd( 3d)     0.00073       2.52711
   109    C    8  dxz    Ryd( 3d)     0.00054       1.97804
   110    C    8  dyz    Ryd( 3d)     0.00045       1.94019
   111    C    8  dx2y2  Ryd( 3d)     0.00067       2.44206
   112    C    8  dz2    Ryd( 3d)     0.00040       2.19565

   113    C    9  S      Cor( 1S)     1.99885     -10.05981
   114    C    9  S      Val( 2S)     0.92687      -0.13098
   115    C    9  S      Ryd( 3S)     0.00147       0.57466
   116    C    9  px     Val( 2p)     1.18814      -0.06496
   117    C    9  px     Ryd( 3p)     0.00643       1.02195
   118    C    9  py     Val( 2p)     1.07121      -0.04785
   119    C    9  py     Ryd( 3p)     0.00420       0.65701
   120    C    9  pz     Val( 2p)     1.02272      -0.10693
   121    C    9  pz     Ryd( 3p)     0.00116       0.57893
   122    C    9  dxy    Ryd( 3d)     0.00069       2.42328
   123    C    9  dxz    Ryd( 3d)     0.00037       1.94598
   124    C    9  dyz    Ryd( 3d)     0.00055       1.96219
   125    C    9  dx2y2  Ryd( 3d)     0.00068       2.50426
   126    C    9  dz2    Ryd( 3d)     0.00040       2.20159

   127    C   10  S      Cor( 1S)     1.99875     -10.09820
   128    C   10  S      Val( 2S)     0.92268      -0.18745
   129    C   10  S      Ryd( 3S)     0.00144       0.54478
   130    C   10  px     Val( 2p)     1.09634      -0.09905
   131    C   10  px     Ryd( 3p)     0.00514       0.75582
   132    C   10  py     Val( 2p)     1.07258      -0.13617
   133    C   10  py     Ryd( 3p)     0.00586       0.96903
   134    C   10  pz     Val( 2p)     1.05256      -0.12897
   135    C   10  pz     Ryd( 3p)     0.00112       0.60105
   136    C   10  dxy    Ryd( 3d)     0.00156       2.24786
   137    C   10  dxz    Ryd( 3d)     0.00072       1.91220
   138    C   10  dyz    Ryd( 3d)     0.00107       1.85590
   139    C   10  dx2y2  Ryd( 3d)     0.00133       2.34562
   140    C   10  dz2    Ryd( 3d)     0.00076       2.11812

   141    C   11  S      Cor( 1S)     1.99885     -10.06151
   142    C   11  S      Val( 2S)     0.92940      -0.13520
   143    C   11  S      Ryd( 3S)     0.00143       0.56085
   144    C   11  px     Val( 2p)     1.09318      -0.05628
   145    C   11  px     Ryd( 3p)     0.00434       0.72916
   146    C   11  py     Val( 2p)     1.16834      -0.06022
   147    C   11  py     Ryd( 3p)     0.00775       0.91822
   148    C   11  pz     Val( 2p)     1.01814      -0.10722
   149    C   11  pz     Ryd( 3p)     0.00111       0.56726
   150    C   11  dxy    Ryd( 3d)     0.00062       2.48438
   151    C   11  dxz    Ryd( 3d)     0.00048       1.96350
   152    C   11  dyz    Ryd( 3d)     0.00045       1.94077
   153    C   11  dx2y2  Ryd( 3d)     0.00074       2.42736
   154    C   11  dz2    Ryd( 3d)     0.00041       2.19733

   155    C   12  S      Cor( 1S)     1.99892     -10.06040
   156    C   12  S      Val( 2S)     0.92414      -0.12732
   157    C   12  S      Ryd( 3S)     0.00160       0.57984
   158    C   12  px     Val( 2p)     1.18343      -0.06145
   159    C   12  px     Ryd( 3p)     0.00580       1.04916
   160    C   12  py     Val( 2p)     1.06855      -0.03781
   161    C   12  py     Ryd( 3p)     0.00327       0.74706
   162    C   12  pz     Val( 2p)     0.99660      -0.10472
   163    C   12  pz     Ryd( 3p)     0.00085       0.58278
   164    C   12  dxy    Ryd( 3d)     0.00065       2.44010
   165    C   12  dxz    Ryd( 3d)     0.00034       1.94934
   166    C   12  dyz    Ryd( 3d)     0.00065       1.96854
   167    C   12  dx2y2  Ryd( 3d)     0.00076       2.52873
   168    C   12  dz2    Ryd( 3d)     0.00040       2.19641

   169    S   13  S      Cor( 1S)     1.99999     -87.94879
   170    S   13  S      Cor( 2S)     1.99943      -8.61074
   171    S   13  S      Val( 3S)     1.74703      -0.77061
   172    S   13  S      Ryd( 4S)     0.00499       0.67420
   173    S   13  px     Cor( 2p)     1.99986      -5.91906
   174    S   13  px     Val( 3p)     1.16005      -0.23550
   175    S   13  px     Ryd( 4p)     0.00284       0.88262
   176    S   13  py     Cor( 2p)     1.99985      -5.91513
   177    S   13  py     Val( 3p)     1.23529      -0.19761
   178    S   13  py     Ryd( 4p)     0.00276       0.75632
   179    S   13  pz     Cor( 2p)     1.99998      -5.91007
   180    S   13  pz     Val( 3p)     1.85126      -0.24242
   181    S   13  pz     Ryd( 4p)     0.00131       0.76785
   182    S   13  dxy    Ryd( 3d)     0.00465       1.01069
   183    S   13  dxz    Ryd( 3d)     0.00223       0.72726
   184    S   13  dyz    Ryd( 3d)     0.00293       0.77592
   185    S   13  dx2y2  Ryd( 3d)     0.00591       1.04199
   186    S   13  dz2    Ryd( 3d)     0.00298       0.89635

   187   Au   14  S      Cor( 5S)     1.99980      -4.15645
   188   Au   14  S      Val( 6S)     0.92957      -0.18611
   189   Au   14  S      Ryd( 7S)     0.00196       0.89767
   190   Au   14  S      Ryd( 8S)     0.00007       4.48576
   191   Au   14  S      Ryd( 9S)     0.00001      59.80419
   192   Au   14  S      Ryd(10S)     0.00000     178.77192
   193   Au   14  px     Cor( 5p)     1.99550      -2.35514
   194   Au   14  px     Val( 6p)     0.01513       0.07193
   195   Au   14  px     Ryd( 7p)     0.00165       1.22353
   196   Au   14  py     Cor( 5p)     1.99965      -2.34534
   197   Au   14  py     Val( 6p)     0.00552       0.01948
   198   Au   14  py     Ryd( 7p)     0.00029       0.81322
   199   Au   14  pz     Cor( 5p)     1.99995      -2.34333
   200   Au   14  pz     Val( 6p)     0.03601       0.00329
   201   Au   14  pz     Ryd( 7p)     0.00005       0.76411
   202   Au   14  dxy    Val( 5d)     1.98021      -0.34092
   203   Au   14  dxy    Ryd( 6d)     0.00015       0.64481
   204   Au   14  dxz    Val( 5d)     1.99460      -0.33902
   205   Au   14  dxz    Ryd( 6d)     0.00014       0.52451
   206   Au   14  dyz    Val( 5d)     1.99926      -0.32237
   207   Au   14  dyz    Ryd( 6d)     0.00012       0.47081
   208   Au   14  dx2y2  Val( 5d)     1.88664      -0.33824
   209   Au   14  dx2y2  Ryd( 6d)     0.00013       0.60055
   210   Au   14  dz2    Val( 5d)     1.96289      -0.32640
   211   Au   14  dz2    Ryd( 6d)     0.00005       0.56310
   212   Au   14  f(0)   Ryd( 5f)     0.00010       1.53521
   213   Au   14  f(C1)  Ryd( 5f)     0.00028       1.53761
   214   Au   14  f(S1)  Ryd( 5f)     0.00002       1.54112
   215   Au   14  f(C2)  Ryd( 5f)     0.00016       1.52995
   216   Au   14  f(S2)  Ryd( 5f)     0.00004       1.52427
   217   Au   14  f(C3)  Ryd( 5f)     0.00033       1.54699
   218   Au   14  f(S3)  Ryd( 5f)     0.00019       1.53997

   219    H   15  S      Val( 1S)     0.77743       0.07466
   220    H   15  S      Ryd( 2S)     0.00191       0.38434
   221    H   15  px     Ryd( 2p)     0.00029       2.09491
   222    H   15  py     Ryd( 2p)     0.00059       2.28953
   223    H   15  pz     Ryd( 2p)     0.00021       1.67783

   224    H   16  S      Val( 1S)     0.77657       0.07607
   225    H   16  S      Ryd( 2S)     0.00189       0.38488
   226    H   16  px     Ryd( 2p)     0.00077       2.37611
   227    H   16  py     Ryd( 2p)     0.00011       2.00297
   228    H   16  pz     Ryd( 2p)     0.00021       1.67767

   229    H   17  S      Val( 1S)     0.78065       0.07720
   230    H   17  S      Ryd( 2S)     0.00190       0.38596
   231    H   17  px     Ryd( 2p)     0.00030       2.09802
   232    H   17  py     Ryd( 2p)     0.00059       2.29701
   233    H   17  pz     Ryd( 2p)     0.00020       1.65902

   234    H   18  S      Val( 1S)     0.78125       0.07643
   235    H   18  S      Ryd( 2S)     0.00191       0.38538
   236    H   18  px     Ryd( 2p)     0.00078       2.39486
   237    H   18  py     Ryd( 2p)     0.00011       1.99931
   238    H   18  pz     Ryd( 2p)     0.00020       1.65861

   239    H   19  S      Val( 1S)     0.77739       0.07310
   240    H   19  S      Ryd( 2S)     0.00162       0.39801
   241    H   19  px     Ryd( 2p)     0.00080       2.38400
   242    H   19  py     Ryd( 2p)     0.00013       2.00040
   243    H   19  pz     Ryd( 2p)     0.00022       1.67322

   244    H   20  S      Val( 1S)     0.76674       0.07664
   245    H   20  S      Ryd( 2S)     0.00202       0.33129
   246    H   20  px     Ryd( 2p)     0.00027       2.07414
   247    H   20  py     Ryd( 2p)     0.00064       2.27762
   248    H   20  pz     Ryd( 2p)     0.00021       1.67238

   249    H   21  S      Val( 1S)     0.77498       0.07964
   250    H   21  S      Ryd( 2S)     0.00164       0.32473
   251    H   21  px     Ryd( 2p)     0.00081       2.38002
   252    H   21  py     Ryd( 2p)     0.00009       1.98176
   253    H   21  pz     Ryd( 2p)     0.00018       1.65218

   254    H   22  S      Val( 1S)     0.77524       0.07925
   255    H   22  S      Ryd( 2S)     0.00164       0.32437
   256    H   22  px     Ryd( 2p)     0.00026       2.08068
   257    H   22  py     Ryd( 2p)     0.00064       2.28061
   258    H   22  pz     Ryd( 2p)     0.00018       1.65194

   259    H   23  S      Val( 1S)     0.77518       0.08002
   260    H   23  S      Ryd( 2S)     0.00159       0.32261
   261    H   23  px     Ryd( 2p)     0.00027       2.08668
   262    H   23  py     Ryd( 2p)     0.00062       2.27683
   263    H   23  pz     Ryd( 2p)     0.00018       1.65252

 [ 60 electrons found in the effective core potential]

 WARNING:  1 low occupancy (<1.9990e) core orbital  found on  C    1
           1 low occupancy (<1.9990e) core orbital  found on  C    2
           1 low occupancy (<1.9990e) core orbital  found on  C    3
           1 low occupancy (<1.9990e) core orbital  found on  C    4
           1 low occupancy (<1.9990e) core orbital  found on  C    5
           1 low occupancy (<1.9990e) core orbital  found on  C    6
           1 low occupancy (<1.9990e) core orbital  found on  C    7
           1 low occupancy (<1.9990e) core orbital  found on  C    8
           1 low occupancy (<1.9990e) core orbital  found on  C    9
           1 low occupancy (<1.9990e) core orbital  found on  C   10
           1 low occupancy (<1.9990e) core orbital  found on  C   11
           1 low occupancy (<1.9990e) core orbital  found on  C   12
           1 low occupancy (<1.9990e) core orbital  found on Au   14


 Summary of Natural Population Analysis:                  
                                                          
                                       Natural Population 
                Natural  -----------------------------------------------
    Atom  No    Charge         Core      Valence    Rydberg      Total
 -----------------------------------------------------------------------
      C    1   -0.22224      1.99893     4.20814    0.01517     6.22224
      C    2   -0.21287      1.99893     4.19878    0.01515     6.21287
      C    3   -0.20184      1.99892     4.18866    0.01425     6.20184
      C    4   -0.05313      1.99885     4.03760    0.01668     6.05313
      C    5   -0.20214      1.99892     4.18898    0.01424     6.20214
      C    6   -0.21314      1.99893     4.19906    0.01515     6.21314
      C    7   -0.06706      1.99884     4.05135    0.01687     6.06706
      C    8   -0.18542      1.99892     4.17218    0.01431     6.18542
      C    9   -0.22375      1.99885     4.20894    0.01597     6.22375
      C   10   -0.16192      1.99875     4.14416    0.01900     6.16192
      C   11   -0.22525      1.99885     4.20906    0.01733     6.22525
      C   12   -0.18597      1.99892     4.17273    0.01432     6.18597
      S   13   -0.02336      9.99912     5.99363    0.03060    16.02336
     Au   14    0.18953     67.99490    10.80983    0.00575    78.81047
      H   15    0.21957      0.00000     0.77743    0.00300     0.78043
      H   16    0.22044      0.00000     0.77657    0.00298     0.77956
      H   17    0.21636      0.00000     0.78065    0.00299     0.78364
[...]
 00,-0.00008511,0.00002458,-0.00002105,-0.00006074,-0.00002308,0.000034
 69,-0.00043840,0.00024057,-0.00018332,0.00042548,0.00006116,-0.0008571
 6,-0.00142124,-0.00007185,0.00060358,-0.00628824,-0.00293986,0.0078005
 8,0.00085891,0.00043230,0.00093884,0.00024663,-0.00094902,-0.00006740,
 0.00118563,-0.00332165,-0.00605492,0.00571110,0.00670188,0.00000415,0.
 00001061,0.00000020,-0.00001570,0.00010534,0.00005791,-0.00020812,0.00
 004121,-0.00006645,0.00024660,0.00036567,0.00000045,0.00011944,-0.0001
 8332,0.00004392,0.00010586,0.00003748,-0.00003486,-0.00008590,-0.00092
 766,0.00011728,0.00068408,0.00023856,0.00047920,0.00053466,-0.00161902
 ,0.00012191,0.00387045,0.00900352,0.00185384,-0.00240709,-0.00170405,-
 0.00075213,-0.00001416,0.00165236,-0.00066100,0.04821917,-0.00467099,-
 0.07675068,-0.05116306,-0.00250769,0.07559720,0.00041050,-0.00019960,-
 0.00008645,0.00008183,0.00046345,-0.00002027,-0.00061328,-0.00034310,0
 .00008197,0.00070524,0.00204200,0.00149669,-0.00000770,0.00007206,0.00
 015214,-0.00025814,-0.00053645,0.00022103,-0.00620201,0.02340332,-0.01
 034723,-0.09530357,0.08812282,-0.04916701,0.00983831,-0.01531952,0.006
 38229,0.00054124,-0.00316295,-0.00259691,-0.00081543,-0.00074032,0.000
 13042,-0.00363788,-0.00164133,-0.00417194,-0.00006942,-0.00075027,0.00
 013585,0.00003400,0.00002362,-0.00003725,0.09549930,-0.00008636,0.0000
 1622,0.00006490,0.00003136,-0.00018707,-0.00000153,0.00037375,0.000344
 65,-0.00005018,-0.00036851,-0.00067103,-0.00086552,-0.00077531,-0.0005
 8706,-0.00102413,-0.00007163,0.00006177,0.00005845,-0.00121702,0.00312
 064,-0.00055927,0.08885296,-0.25243843,0.09715146,0.01203638,-0.017240
 32,0.01086359,-0.00396777,-0.00164891,0.00035646,-0.00050476,0.0002915
 2,-0.00042677,-0.00083262,0.00142013,0.00066246,0.00008706,-0.00074322
 ,0.00025054,0.00001759,-0.00005227,-0.00000469,-0.09317887,0.26813032,
 -0.00018366,0.00013993,-0.00002024,0.00016556,-0.00029590,0.00006280,0
 .00044702,0.00028101,0.00018734,0.00145408,-0.00102643,-0.00253422,-0.
 00131207,-0.00002958,0.00003983,0.00057233,-0.00011292,-0.00006343,-0.
 00291857,0.01200299,-0.00029993,-0.05020009,0.09733944,-0.08651446,-0.
 00045489,-0.00265458,0.00478579,-0.00274529,0.00075660,0.00611193,0.00
 033585,-0.00042641,-0.00057518,-0.00425085,0.00004094,0.00392948,0.000
 01296,-0.00014581,-0.00004567,-0.00001509,-0.00003584,0.00000896,0.056
 83015,-0.10449358,0.07943939,0.00021715,-0.00017711,-0.00009866,0.0002
 1792,0.00019045,0.00007107,-0.00022564,-0.00100597,0.00088947,-0.00120
 961,-0.00130463,0.00139889,0.00014420,0.00074971,0.00014532,-0.0003337
 7,-0.00016589,-0.00004536,-0.00681268,-0.00149210,-0.00453539,0.001627
 44,0.00168686,-0.00243695,0.00053072,0.00014577,0.00051827,0.00181236,
 -0.00331708,-0.00195553,-0.01032047,0.00242754,-0.00744462,-0.28112822
 ,0.00038739,-0.11838871,-0.00041562,-0.00012172,-0.00015342,0.00000758
 ,0.00000932,-0.00002692,-0.00039038,-0.00010980,-0.00019286,0.29651874
 ,-0.00028947,0.00020646,0.00005427,-0.00030648,-0.00038284,-0.00026978
 ,0.00001162,-0.00053346,0.00027531,0.00106713,0.00121665,-0.00057517,0
 .00004212,-0.00036363,-0.00009128,0.00022964,0.00022873,0.00004218,0.0
 2313549,0.00393511,0.01095783,0.00088378,-0.00415834,0.00281221,-0.000
 09409,-0.00108854,-0.00000951,-0.00259636,-0.00300169,0.00145734,-0.02
 503428,0.00395089,-0.01168376,-0.00024331,-0.05636069,0.00329839,-0.00
 084709,-0.00041623,-0.00032764,-0.00001050,-0.00000903,-0.00004344,0.0
 0125294,0.00013321,0.00062632,0.00264326,0.05626198,-0.00022653,0.0001
 1446,-0.00002155,0.00034661,-0.00049162,-0.00010664,-0.00056204,0.0010
 9856,0.00017685,0.00173520,-0.00060350,-0.00252872,-0.00006025,-0.0005
 3515,0.00013754,0.00034111,-0.00001005,0.00008334,-0.01058661,-0.00233
 572,-0.00047126,-0.00199335,0.00326401,0.00428961,0.00054122,-0.000151
 98,-0.00056568,-0.00227714,0.00110483,0.00617739,-0.00047892,0.0015927
 7,0.00372443,-0.11902336,0.00418166,-0.09669948,0.00009165,0.00019766,
 -0.00007625,-0.00004165,-0.00003875,0.00003210,-0.00055859,-0.00010113
 ,0.00002130,0.12968623,-0.00634838,0.09020174,-0.00094345,-0.00307852,
 0.00061363,0.01116427,-0.01582672,-0.00285043,-0.12090601,0.11489951,0
 .02522936,-0.00925866,0.02665983,0.00487368,-0.00541048,-0.00141625,0.
 00113858,-0.00069091,-0.00078589,-0.00010040,0.00128931,0.00168757,-0.
 00031736,-0.00039555,-0.00026181,-0.00024151,0.00015595,0.00035727,0.0
 0004107,0.00025366,-0.00013138,0.00021967,-0.00001093,-0.00052777,-0.0
 0015692,-0.00036747,0.00002136,-0.00029134,0.00001957,-0.00004440,0.00
 002956,-0.00000230,0.00001272,-0.00000867,0.00010290,-0.00000363,0.000
 08833,0.00000227,-0.00062926,0.00082968,0.12435730,-0.00414970,-0.0024
 6878,-0.00077471,0.01488126,-0.01727371,-0.00442089,0.11543816,-0.2657
 3583,-0.04581507,-0.00109235,0.00232965,0.00009358,-0.00042610,0.00146
 476,-0.00055310,-0.00066491,0.00038820,0.00017251,-0.00070273,-0.00054
 078,0.00049735,0.00031238,0.00035016,0.00013825,0.00001593,-0.00016717
 ,0.00001811,-0.00001652,0.00003951,-0.00006834,-0.00011535,0.00005537,
 -0.00011805,-0.00095677,-0.00047841,0.00081895,-0.00003118,-0.00003925
 ,-0.00001440,0.00001606,0.00000687,-0.00000856,-0.00001873,0.00000087,
 0.00000839,-0.00101171,-0.00048883,0.00029989,-0.12211579,0.28241793,0
 .00072102,-0.00091276,0.00705664,0.00116808,-0.00041232,0.00397420,0.0
 2627400,-0.04617535,-0.04733502,-0.00008762,-0.00400983,0.00334833,0.0
 0116471,-0.00019654,0.00613923,-0.00027944,0.00006473,-0.00084250,-0.0
 0014751,0.00139666,-0.00337714,-0.00065435,-0.00040672,-0.00001306,-0.
 00015764,0.00043130,-0.00000667,0.00030191,-0.00012894,0.00016256,-0.0
 0058038,-0.00013279,-0.00031839,0.00125406,0.00021001,0.00030257,-0.00
 004624,-0.00004429,0.00001703,0.00000122,0.00000935,-0.00002088,-0.000
 02523,-0.00002198,-0.00009049,0.00020275,0.00078018,-0.00023606,-0.028
 59081,0.04902946,0.03604508,0.00064494,-0.00333675,0.00036173,0.000768
 02,0.00005642,-0.00011266,0.00074608,0.00268434,0.00095030,-0.01052793
 ,-0.00179939,0.00123567,-0.33349577,0.00800234,0.03830092,-0.01133154,
 0.00355026,0.00218791,-0.00047849,-0.00155645,-0.00056512,-0.00005891,
 -0.00067571,-0.00094507,0.00029906,0.00001229,0.00007278,0.00011118,-0
 .00006942,0.00017623,-0.00022376,-0.00018609,-0.00003176,0.00019001,0.
 00057859,-0.00017758,-0.00000770,-0.00003649,0.00001902,0.00001004,0.0
 0000381,-0.00000881,0.00026460,-0.00085857,0.00005088,0.00002736,-0.00
 005967,0.00003416,-0.00056712,-0.00012790,0.00001687,0.35348555,-0.002
 28041,-0.00401263,-0.00123879,-0.00005346,-0.00107305,-0.00000858,0.00
 170611,-0.00456990,-0.00157850,0.02601980,0.00344204,-0.00305684,0.007
 38148,-0.05731148,-0.00267666,-0.02715102,0.00485289,0.00319811,0.0008
 4359,0.00132432,0.00049611,0.00013834,-0.00064659,-0.00017720,-0.00036
 228,-0.00032275,0.00016217,-0.00022469,0.00020191,-0.00012709,0.000188
 56,0.00024624,-0.00000935,0.00000949,-0.00030158,0.00013414,-0.0000371
 6,-0.00004175,-0.00003773,0.00001413,0.00001518,-0.00000820,-0.0003872
 5,-0.00063930,-0.00093090,-0.00003697,0.00007681,-0.00007140,0.0014248
 6,0.00009869,-0.00019209,-0.00641628,0.05756377,0.00062573,-0.00132527
 ,0.00701439,-0.00010666,0.00020346,-0.00083969,0.00057007,-0.00171047,
 0.00601596,0.00500523,0.00176198,0.00347368,0.03900519,-0.00341283,-0.
 04304419,-0.00213496,-0.00060719,0.00431876,-0.00110079,-0.00016767,-0
 .00346885,0.00036845,-0.00134158,0.00017169,-0.00015383,0.00059777,-0.
 00025399,0.00025899,-0.00023120,0.00012627,-0.00044952,-0.00003520,-0.
 00004067,0.00008277,0.00077036,0.00005123,-0.00000127,0.00006437,0.000
 00794,-0.00000794,-0.00000661,0.00001130,-0.00062248,-0.00060008,-0.00
 039720,0.00001174,0.00004402,-0.00009231,0.00025529,0.00005046,0.00026
 977,-0.04093119,0.00526096,0.03174532,-0.00001143,-0.00002211,-0.00000
 128,-0.00004928,0.00004753,0.00002261,-0.00000221,-0.00021152,0.000015
 18,-0.00040863,0.00046866,-0.00024036,-0.00004784,-0.00000456,0.000059
 61,0.00002368,-0.00000133,-0.00000980,0.00155025,-0.00329004,-0.002090
 03,-0.00842565,0.00246668,-0.00691172,-0.28809429,-0.00254246,-0.11645
 460,-0.00721502,-0.00299882,-0.00404829,0.00183378,0.00178685,-0.00229
 649,0.00048934,-0.00006746,0.00065692,0.00025420,-0.00041425,0.0014324
 4,0.00011407,-0.00013724,0.00003451,-0.00011911,0.00045738,0.00195275,
 -0.00021628,0.00005543,0.00029573,-0.00000218,0.00002300,-0.00000231,0
 .00002960,0.00002413,-0.00000246,0.30058064,-0.00000456,-0.00001837,-0
 .00000723,-0.00006589,0.00001943,0.00006809,-0.00008711,-0.00033293,-0
 .00004678,-0.00090597,0.00052843,-0.00047456,-0.00003048,0.00000409,0.
 00005734,0.00001044,-0.00002355,0.00001886,-0.00259672,-0.00384143,0.0
 0127022,-0.02424233,0.00405558,-0.01116488,-0.00403778,-0.05421396,0.0
 0186166,0.02370666,0.00210331,0.01108816,0.00089778,-0.00429480,0.0027
 2507,0.00000420,-0.00093076,0.00006764,0.00093424,0.00129179,-0.000463
 05,-0.00009700,-0.00002082,0.00019223,0.00076288,0.00074966,-0.0009071
 5,0.00004864,0.00002674,-0.00017970,-0.00000267,0.00001420,-0.00001653
 ,0.00000905,-0.00000678,-0.00003473,0.00445676,0.05465504,-0.00000899,
 0.00000806,0.00000100,0.00001410,-0.00006498,0.00002100,-0.00002244,0.
 00000307,-0.00013837,0.00000998,0.00000389,0.00008013,-0.00000042,-0.0
 0005422,-0.00007695,-0.00001752,0.00000066,0.00003497,-0.00186901,0.00
 122602,0.00635485,-0.00098188,0.00130049,0.00412005,-0.11617723,0.0031
 3659,-0.09411304,-0.00995911,-0.00142641,-0.00101646,-0.00244185,0.002
 84040,0.00389024,0.00070540,0.00026203,-0.00056577,0.00119650,-0.00154
 304,-0.00167957,0.00004440,0.00029946,-0.00018616,0.00194232,-0.001111
 62,-0.00337492,0.00028492,-0.00017517,-0.00068396,0.00001197,-0.000018
 30,-0.00001838,-0.00005804,-0.00003505,-0.00000735,0.12787787,-0.00463
 231,0.08723626,-0.00000672,-0.00000398,0.00000507,-0.00001664,-0.00000
 793,-0.00002053,0.00000885,-0.00000235,-0.00002098,0.00052936,-0.00047
 952,0.00026595,-0.00015990,-0.00017278,0.00002859,0.00001689,-0.000033
 30,-0.00004771,-0.00013064,-0.00350173,-0.00256825,-0.00075677,-0.0006
 2043,0.00015013,-0.00384295,-0.00162624,-0.00396567,-0.00712272,0.0235
 8600,-0.01067523,-0.09325649,0.08958372,-0.04657493,0.00997980,-0.0153
 0127,0.00613276,0.00107196,0.00128031,0.00141346,-0.00030690,-0.000075
 19,0.00013796,-0.00009350,0.00010200,0.00032413,-0.00007647,0.00078054
 ,0.00188378,-0.00001482,-0.00001598,0.00002440,0.00000004,0.00000130,0
 .00001185,-0.00026409,0.00126700,-0.00054790,0.09446068,-0.00001976,-0
 .00002254,0.00000150,-0.00002104,0.00001562,-0.00000370,0.00001960,-0.
 00004442,-0.00007464,0.00089880,-0.00042026,0.00043139,-0.00027645,-0.
 00018810,-0.00000899,0.00007658,-0.00003802,-0.00005325,-0.00414102,-0
 .00197359,0.00032951,-0.00056453,0.00035426,-0.00050054,-0.00087896,0.
 00145437,0.00060293,-0.00306387,0.00218324,-0.00104851,0.09133849,-0.2
 6010078,0.09486497,0.01128990,-0.01545905,0.01011050,-0.00042011,0.000
 72016,-0.00100792,0.00000830,0.00006329,-0.00000158,0.00011589,-0.0000
 9977,-0.00013102,0.00043977,0.00072267,-0.00095554,0.00000223,0.000027
 15,0.00002132,0.00002301,0.00000756,0.00001272,-0.00005860,0.00028380,
 -0.00001527,-0.09473205,0.27256529,-0.00000635,0.00000705,0.00000007,-
 0.00001444,0.00001934,0.00003597,0.00004835,0.00003333,-0.00007488,0.0
 0008899,-0.00007316,0.00010495,-0.00002635,0.00001442,-0.00013353,0.00
 007190,0.00000586,0.00001558,-0.00278105,0.00046804,0.00614619,0.00027
 932,-0.00052885,-0.00060373,-0.00405514,0.00030297,0.00381008,-0.00354
 127,0.01084685,-0.00117004,-0.04711958,0.09431557,-0.08303531,-0.00058
 843,-0.00219105,0.00519895,0.00118468,-0.00031986,-0.00198170,0.000262
 68,0.00004742,0.00014720,0.00033251,-0.00011843,-0.00067862,0.00207256
 ,-0.00090498,-0.00337467,0.00000551,0.00006766,0.00000250,0.00002532,-
 0.00000390,-0.00001496,-0.00028317,0.00058717,0.00012064,0.05404252,-0
 .10257836,0.07548063,-0.00950160,-0.00309386,0.00117072,-0.33499706,0.
 00685406,0.03332469,-0.01136541,0.00348797,0.00217059,0.00074683,-0.00
 308161,0.00034777,0.00085730,-0.00006022,-0.00018614,0.00077878,0.0028
 8646,0.00105960,-0.00046534,0.00057043,0.00007231,-0.00006770,-0.00026
 135,0.00003406,-0.00003828,0.00004962,-0.00005429,-0.00003146,-0.00008
 343,-0.00003947,0.00004478,0.00000633,0.00001157,-0.00005677,-0.000079
 25,-0.00004454,0.00003600,0.00006223,0.00001305,-0.00002013,-0.0000148
 4,0.00001603,0.00000476,0.00001712,0.00001351,0.00000273,0.00002236,0.
 00000674,0.00081187,0.00001837,-0.00052188,-0.00008919,0.00000686,-0.0
 0010326,-0.00001539,-0.00002076,0.00000061,-0.00000859,-0.00001618,0.0
 0000373,0.35319955,0.02782058,0.00404854,-0.00302504,0.00704694,-0.058
 10504,-0.00329706,-0.02720551,0.00479519,0.00315139,-0.00230507,-0.004
 07566,-0.00098756,-0.00002635,-0.00112544,-0.00005328,0.00184600,-0.00
 439702,-0.00153572,-0.00106159,0.00057534,0.00008433,-0.00010986,-0.00
 035579,0.00001913,-0.00005577,0.00003489,-0.00009213,-0.00000823,-0.00
 003270,-0.00000914,0.00003052,-0.00002104,0.00000711,-0.00000344,-0.00
 000793,-0.00006321,0.00001486,0.00002408,0.00000852,-0.00000768,-0.000
 00744,0.00000598,-0.00000718,0.00001577,0.00000968,0.00000395,-0.00000
 113,0.00003006,0.00043156,0.00093094,0.00062714,-0.00000341,0.00007608
 ,0.00012832,-0.00001848,-0.00002618,-0.00000045,-0.00000850,-0.0000136
 6,0.00000225,-0.00723094,0.05664555,0.00441704,0.00065265,0.00366626,0
 .03352065,-0.00368590,-0.04268118,-0.00135181,-0.00028956,0.00413922,0
 .00028232,-0.00121944,0.00712019,-0.00022663,-0.00013495,-0.00082045,0
 .00109446,-0.00146639,0.00667304,-0.00007343,0.00005504,0.00026565,0.0
 0006880,-0.00001436,-0.00010714,-0.00000229,0.00007166,-0.00000845,-0.
 00000202,-0.00003490,-0.00000059,0.00001187,0.00000830,0.00002391,0.00
 001997,0.00003466,-0.00009300,0.00001227,0.00001259,-0.00001022,-0.000
 00282,0.00000036,0.00000564,-0.00000996,0.00002182,-0.00001972,0.00005
 343,0.00004278,0.00002035,-0.00057727,0.00072343,-0.00421676,-0.000095
 28,0.00013634,-0.00097913,-0.00000612,0.00000120,0.00001377,0.00000095
 ,0.00000282,0.00000213,-0.03679787,0.00445550,0.03084617,-0.00879384,0
 .02815256,0.00492685,-0.00540975,-0.00126250,0.00112895,-0.00069200,-0
 .00081145,-0.00009631,-0.00103998,-0.00320380,0.00035628,0.01114276,-0
 .01582222,-0.00279937,-0.12104015,0.11500202,0.02343712,0.00056862,-0.
 00054308,-0.00007307,0.00001439,0.00003147,0.00004434,-0.00002183,-0.0
 0000220,-0.00000487,0.00000098,0.00001068,-0.00000381,0.00002516,-0.00
 002837,0.00005787,-0.00015139,-0.00014815,-0.00001610,-0.00000623,-0.0
 0000182,-0.00000126,0.00000247,-0.00000088,-0.00000142,-0.00000894,0.0
 0000287,-0.00002518,0.00001089,-0.00000452,-0.00000151,0.00005535,0.00
 006947,-0.00010240,0.00080182,0.00042277,-0.00050334,-0.00000260,-0.00
 000539,-0.00000114,-0.00000858,-0.00001482,-0.00000181,-0.00054092,0.0
 0129941,0.00021346,0.12396796,-0.00270123,0.00335168,0.00013381,-0.000
 22284,0.00172405,-0.00068543,-0.00084447,0.00038468,0.00024663,-0.0039
 8830,-0.00232273,-0.00085533,0.01484518,-0.01730444,-0.00436104,0.1147
 7743,-0.26842759,-0.04118955,0.00109393,-0.00044458,-0.00010609,-0.000
 04805,-0.00008395,0.00006649,-0.00003186,0.00005207,-0.00000631,-0.000
 03357,-0.00009349,-0.00004794,0.00008017,-0.00002894,0.00010324,-0.000
 30278,-0.00026644,-0.00006603,0.00003509,0.00008042,0.00001034,-0.0000
 2204,-0.00002063,0.00001817,0.00001838,0.00001877,-0.00001943,0.000022
 71,0.00001210,-0.00001393,0.00007956,-0.00006644,0.00011519,0.00001750
 ,0.00094852,0.00061831,-0.00001369,-0.00001833,-0.00000430,-0.00001805
 ,-0.00003232,-0.00000281,-0.00017537,0.00003518,0.00000118,-0.12290868
 ,0.28191913,0.00054411,-0.00283464,0.00364685,0.00117151,-0.00080304,0
 .00673841,-0.00004554,0.00032209,-0.00078305,0.00046888,-0.00065666,0.
 00715555,0.00124320,-0.00124905,0.00372102,0.02384379,-0.04116629,-0.0
 4627092,0.00002346,-0.00004848,0.00025421,-0.00001753,-0.00002981,-0.0
 0008868,-0.00000480,-0.00001451,0.00002261,0.00002454,0.00001561,0.000
 00973,-0.00006121,-0.00003250,-0.00000691,0.00001822,-0.00007288,-0.00
 011871,-0.00000993,-0.00001907,-0.00000836,0.00000449,0.00000333,-0.00
 000317,-0.00001467,-0.00006690,0.00001181,-0.00002110,0.00000115,-0.00
 002209,-0.00010573,0.00010445,-0.00098049,-0.00064765,0.00064455,-0.00
 422394,-0.00000351,-0.00000428,0.00000108,-0.00000615,0.00000006,0.000
 01410,0.00004524,-0.00013456,0.00014938,-0.02593260,0.04546085,0.03477
 550,-0.13583742,-0.12578924,-0.00506490,0.01123662,0.01410072,0.000893
 83,-0.00060238,0.00269353,0.00110385,-0.00062999,0.00087652,0.00004610
 ,-0.00512432,0.00143887,0.00142007,-0.01021176,-0.02761588,-0.00190089
 ,0.00013710,-0.00002286,-0.00008441,-0.00007694,-0.00003506,-0.0000578
 1,0.00004001,0.00005978,-0.00000169,0.00002557,-0.00004584,0.00001800,
 -0.00001838,-0.00004785,0.00000994,-0.00000972,0.00001695,-0.00003626,
 0.00001432,0.00001670,0.00000523,-0.00000587,-0.00000343,0.00000419,0.
 00003669,-0.00000361,0.00005101,0.00000978,-0.00000928,0.00001783,0.00
 035740,0.00067109,0.00006679,-0.00059789,-0.00123191,-0.00007760,-0.00
 000155,-0.00000098,-0.00000256,-0.00000181,-0.00000518,-0.00000047,0.0
 0071522,-0.00044182,-0.00054973,0.00112581,0.00034100,-0.00051703,0.13
 941951,-0.12579332,-0.26111703,-0.01403756,-0.01680828,-0.01680631,-0.
 00077369,0.00372805,-0.00284657,-0.00157593,0.00086645,0.00025228,0.00
 006942,0.00041718,0.00159677,-0.00069026,0.00328859,0.00430513,-0.0002
 3731,-0.00002580,0.00010176,0.00010656,-0.00000994,-0.00000972,0.00001
 137,-0.00001926,-0.00002537,-0.00001252,-0.00004257,-0.00001784,-0.000
 04247,0.00003869,0.00005294,0.00002478,-0.00001120,-0.00010369,0.00003
 679,0.00001490,0.00003348,0.00000225,-0.00000848,-0.00000706,0.0000080
 7,0.00000820,0.00000384,0.00000426,-0.00001240,0.00003303,-0.00004705,
 -0.00075237,-0.00086512,-0.00003521,0.00018852,0.00007181,-0.00003990,
 -0.00000583,-0.00000415,0.00000045,-0.00000158,-0.00000491,0.00000348,
 0.00013601,0.00098746,0.00062518,-0.00023337,0.00058325,0.00058058,0.1
 3503779,0.27378604,-0.00500887,-0.01406401,-0.03903630,-0.00265848,-0.
 00381171,0.00369899,0.00106806,-0.00144253,0.00672991,0.00023483,-0.00
 005142,-0.00091381,0.00120097,-0.00066414,0.00680819,0.00177363,0.0027
 1666,0.00403061,-0.00003351,0.00007788,-0.00086184,-0.00015224,-0.0002
 2041,0.00000715,0.00001278,0.00023848,-0.00006400,0.00015402,-0.000104
 51,0.00009851,-0.00019498,-0.00011146,-0.00008632,0.00012621,0.0002233
 7,0.00002980,-0.00000251,0.00000654,0.00001696,-0.00000427,-0.00000137
 ,-0.00000181,-0.00004737,0.00001614,0.00001546,-0.00003515,0.00003712,
 0.00001402,-0.00009588,-0.00023106,0.00013793,0.00014138,0.00011989,0.
 00015597,0.00000252,-0.00000645,-0.00001309,0.00000582,0.00000158,-0.0
 0001154,-0.00054280,0.00066875,-0.00398906,-0.00060067,0.00058398,-0.0
 0399392,0.00465650,0.01601869,0.02722818\\0.00000136,-0.00000209,0.000
 00053,0.00000045,0.00000382,0.00000070,-0.00000058,-0.00000147,-0.0000
 0209,0.00000720,-0.00000045,0.00000575,-0.00000170,0.00000273,-0.00000
 013,0.00000004,0.00000026,-0.00000053,-0.00001518,0.00000556,-0.000014
 38,0.00001421,0.00001208,0.00000672,-0.00000011,-0.00002305,0.00000366
 ,-0.00001487,0.00000824,-0.00000994,0.00001527,0.00001156,0.00000735,-
 0.00000133,-0.00002016,0.00000687,0.00000326,-0.00000105,-0.00000389,-
 0.00000210,0.00000135,0.00000332,-0.00000183,-0.00000064,0.00000017,-0
 .00000110,0.00000278,-0.00000106,-0.00000038,0.00000060,0.00000091,-0.
 00000030,-0.00000169,-0.00000222,-0.00000033,0.00000384,-0.00000142,-0
 .00000348,-0.00000217,-0.00000016,0.00000036,-0.00000014,0.00000008,0.
 00000067,0.00000020,-0.00000013,0.00000045,-0.00000010,-0.00000010\\\@


 Ideas are like rabbits. You get a couple and learn
 how to handle them, and pretty soon you have a dozen.
                                    -- John Steinbeck
 Job cpu time:       0 days  1 hours  8 minutes  2.4 seconds.
 File lengths (MBytes):  RWF=    208 Int=      0 D2E=      0 Chk=      6 Scr=      1
 Normal termination of Gaussian 09 at Fri Jun 21 12:53:49 2019.
