comment                                                                 
Freq      RB3LYP                                                      def2SVP             
Number of atoms                            I               23
Info1-9                                    I   N=           9
          37          32        1002           0           0         100
           6          18        -502
Charge                                     I                0
Multiplicity                               I                1
Number of electrons                        I              116
Number of alpha electrons                  I               58
Number of beta electrons                   I               58
Number of basis functions                  I              263
Number of independent functions            I              263
Number of point charges in /Mol/           I                0
Number of translation vectors              I                0
Atomic numbers                             I   N=          23
           6           6           6           6           6           6
           6           6           6           6           6           6
          16          79           1           1           1           1
           1           1           1           1           1
Nuclear charges                            R   N=          23
  6.00000000E+00  6.00000000E+00  6.00000000E+00  6.00000000E+00  6.00000000E+00
  6.00000000E+00  6.00000000E+00  6.00000000E+00  6.00000000E+00  6.00000000E+00
  6.00000000E+00  6.00000000E+00  1.60000000E+01  1.90000000E+01  1.00000000E+00
  1.00000000E+00  1.00000000E+00  1.00000000E+00  1.00000000E+00  1.00000000E+00
  1.00000000E+00  1.00000000E+00  1.00000000E+00
Current cartesian coordinates              R   N=          69
 -4.62520546E+00 -5.82762135E+00 -2.12355998E-01 -5.85359631E+00 -3.52397295E+00
  1.88804299E-01 -4.46828757E+00 -1.28419782E+00  3.15160986E-01 -1.82273651E+00
 -1.29608740E+00  4.69236917E-02 -6.13250563E-01 -3.63005541E+00 -3.54107530E-01
 -1.99819597E+00 -5.86982740E+00 -4.84060138E-01 -3.51166775E-01  1.08330003E+00
  1.82253085E-01  2.07308714E+00  1.13704975E+00  1.27918993E+00  3.46128017E+00
  3.36713104E+00  1.40686575E+00  2.46682115E+00  5.62820017E+00  4.30157667E-01
  4.71968577E-02  5.59692956E+00 -6.64255081E-01 -1.33325124E+00  3.36067465E+00
 -7.81215614E-01  4.14862708E+00  8.52130440E+00  7.57103471E-01  6.60378528E+00
  8.65764943E+00 -2.83802761E+00  2.85965197E+00 -5.89220042E-01  2.09045905E+00
 -3.18909128E+00  3.36659239E+00 -1.68275011E+00 -5.44468603E+00  4.97102229E-01
  6.77279279E-01  1.43275628E+00 -3.68214736E+00 -6.16435312E-01  5.32978905E+00
  3.38631510E+00  2.28033947E+00 -7.27493948E-01  7.34469663E+00 -1.43875083E+00
 -7.90475087E+00 -3.47155704E+00  4.20704212E-01 -1.02063169E+00 -7.65836364E+00
 -8.14701649E-01 -5.70979332E+00 -7.58142016E+00 -3.12475256E-01
Force Field                                I                0
Int Atom Types                             I   N=          23
           0           0           0           0           0           0
           0           0           0           0           0           0
           0           0           0           0           0           0
           0           0           0           0           0
MM charges                                 R   N=          23
  0.00000000E+00  0.00000000E+00  0.00000000E+00  0.00000000E+00  0.00000000E+00
  0.00000000E+00  0.00000000E+00  0.00000000E+00  0.00000000E+00  0.00000000E+00
  0.00000000E+00  0.00000000E+00  0.00000000E+00  0.00000000E+00  0.00000000E+00
  0.00000000E+00  0.00000000E+00  0.00000000E+00  0.00000000E+00  0.00000000E+00
  0.00000000E+00  0.00000000E+00  0.00000000E+00
Integer atomic weights                     I   N=          23
          12          12          12          12          12          12
          12          12          12          12          12          12
          32         197           1           1           1           1
           1           1           1           1           1
Real atomic weights                        R   N=          23
  1.20000000E+01  1.20000000E+01  1.20000000E+01  1.20000000E+01  1.20000000E+01
  1.20000000E+01  1.20000000E+01  1.20000000E+01  1.20000000E+01  1.20000000E+01
  1.20000000E+01  1.20000000E+01  3.19720718E+01  1.96966600E+02  1.00782504E+00
  1.00782504E+00  1.00782504E+00  1.00782504E+00  1.00782504E+00  1.00782504E+00
  1.00782504E+00  1.00782504E+00  1.00782504E+00
Atom fragment info                         I   N=          23
           0           0           0           0           0           0
           0           0           0           0           0           0
           0           0           0           0           0           0
           0           0           0           0           0
Atom residue num                           I   N=          23
           0           0           0           0           0           0
           0           0           0           0           0           0
           0           0           0           0           0           0
           0           0           0           0           0
Nuclear spins                              I   N=          23
           0           0           0           0           0           0
           0           0           0           0           0           0
           0           3           1           1           1           1
           1           1           1           1           1
Nuclear ZEff                               R   N=          23
 -3.60000000E+00 -3.60000000E+00 -3.60000000E+00 -3.60000000E+00 -3.60000000E+00
 -3.60000000E+00 -3.60000000E+00 -3.60000000E+00 -3.60000000E+00 -3.60000000E+00
 -3.60000000E+00 -3.60000000E+00 -1.36000000E+01 -1.20238000E+03 -1.00000000E+00
 -1.00000000E+00 -1.00000000E+00 -1.00000000E+00 -1.00000000E+00 -1.00000000E+00
 -1.00000000E+00 -1.00000000E+00 -1.00000000E+00
Nuclear ZNuc                               R   N=          23
  6.00000000E+00  6.00000000E+00  6.00000000E+00  6.00000000E+00  6.00000000E+00
  6.00000000E+00  6.00000000E+00  6.00000000E+00  6.00000000E+00  6.00000000E+00
  6.00000000E+00  6.00000000E+00  1.60000000E+01  7.90000000E+01  1.00000000E+00
  1.00000000E+00  1.00000000E+00  1.00000000E+00  1.00000000E+00  1.00000000E+00
  1.00000000E+00  1.00000000E+00  1.00000000E+00
Nuclear QMom                               R   N=          23
  0.00000000E+00  0.00000000E+00  0.00000000E+00  0.00000000E+00  0.00000000E+00
  0.00000000E+00  0.00000000E+00  0.00000000E+00  0.00000000E+00  0.00000000E+00
  0.00000000E+00  0.00000000E+00  0.00000000E+00  5.47000000E+01  0.00000000E+00
  0.00000000E+00  0.00000000E+00  0.00000000E+00  0.00000000E+00  0.00000000E+00
  0.00000000E+00  0.00000000E+00  0.00000000E+00
Nuclear GFac                               R   N=          23
  0.00000000E+00  0.00000000E+00  0.00000000E+00  0.00000000E+00  0.00000000E+00
  0.00000000E+00  0.00000000E+00  0.00000000E+00  0.00000000E+00  0.00000000E+00
  0.00000000E+00  0.00000000E+00  0.00000000E+00  1.48159000E-01  2.79284600E+00
  2.79284600E+00  2.79284600E+00  2.79284600E+00  2.79284600E+00  2.79284600E+00
  2.79284600E+00  2.79284600E+00  2.79284600E+00
MicOpt                                     I   N=          23
          -1          -1          -1          -1          -1          -1
          -1          -1          -1          -1          -1          -1
          -1          -1          -1          -1          -1          -1
          -1          -1          -1          -1          -1
Number of contracted shells                I              119
Number of primitive shells                 I              226
Pure/Cartesian d shells                    I                0
Pure/Cartesian f shells                    I                0
Highest angular momentum                   I                3
Largest degree of contraction              I                5
Shell types                                I   N=         119
           0           0           0           1           1          -2
           0           0           0           1           1          -2
           0           0           0           1           1          -2
           0           0           0           1           1          -2
           0           0           0           1           1          -2
           0           0           0           1           1          -2
           0           0           0           1           1          -2
           0           0           0           1           1          -2
           0           0           0           1           1          -2
           0           0           0           1           1          -2
           0           0           0           1           1          -2
           0           0           0           1           1          -2
           0           0           0           0           1           1
           1          -2           0           0           0           0
           0           0           1           1           1          -2
          -2          -3           0           0           1           0
           0           1           0           0           1           0
           0           1           0           0           1           0
           0           1           0           0           1           0
           0           1           0           0           1
Number of primitives per shell             I   N=         119
           5           1           1           3           1           1
           5           1           1           3           1           1
           5           1           1           3           1           1
           5           1           1           3           1           1
           5           1           1           3           1           1
           5           1           1           3           1           1
           5           1           1           3           1           1
           5           1           1           3           1           1
           5           1           1           3           1           1
           5           1           1           3           1           1
           5           1           1           3           1           1
           5           1           1           3           1           1
           5           3           1           1           5           1
           1           1           2           1           1           1
           1           1           4           1           1           4
           1           1           3           1           1           3
           1           1           3           1           1           3
           1           1           3           1           1           3
           1           1           3           1           1           3
           1           1           3           1           1
Shell to atom map                          I   N=         119
           1           1           1           1           1           1
           2           2           2           2           2           2
           3           3           3           3           3           3
           4           4           4           4           4           4
           5           5           5           5           5           5
           6           6           6           6           6           6
           7           7           7           7           7           7
           8           8           8           8           8           8
           9           9           9           9           9           9
          10          10          10          10          10          10
          11          11          11          11          11          11
          12          12          12          12          12          12
          13          13          13          13          13          13
          13          13          14          14          14          14
          14          14          14          14          14          14
          14          14          15          15          15          16
          16          16          17          17          17          18
          18          18          19          19          19          20
          20          20          21          21          21          22
          22          22          23          23          23
Primitive exponents                        R   N=         226
  1.23840169E+03  1.86290050E+02  4.22511763E+01  1.16765579E+01  3.59305065E+00
  4.02451474E-01  1.30901827E-01  9.46809706E+00  2.01035451E+00  5.47710047E-01
  1.52686138E-01  8.00000000E-01  1.23840169E+03  1.86290050E+02  4.22511763E+01
  1.16765579E+01  3.59305065E+00  4.02451474E-01  1.30901827E-01  9.46809706E+00
  2.01035451E+00  5.47710047E-01  1.52686138E-01  8.00000000E-01  1.23840169E+03
  1.86290050E+02  4.22511763E+01  1.16765579E+01  3.59305065E+00  4.02451474E-01
  1.30901827E-01  9.46809706E+00  2.01035451E+00  5.47710047E-01  1.52686138E-01
  8.00000000E-01  1.23840169E+03  1.86290050E+02  4.22511763E+01  1.16765579E+01
  3.59305065E+00  4.02451474E-01  1.30901827E-01  9.46809706E+00  2.01035451E+00
  5.47710047E-01  1.52686138E-01  8.00000000E-01  1.23840169E+03  1.86290050E+02
  4.22511763E+01  1.16765579E+01  3.59305065E+00  4.02451474E-01  1.30901827E-01
  9.46809706E+00  2.01035451E+00  5.47710047E-01  1.52686138E-01  8.00000000E-01
  1.23840169E+03  1.86290050E+02  4.22511763E+01  1.16765579E+01  3.59305065E+00
  4.02451474E-01  1.30901827E-01  9.46809706E+00  2.01035451E+00  5.47710047E-01
  1.52686138E-01  8.00000000E-01  1.23840169E+03  1.86290050E+02  4.22511763E+01
  1.16765579E+01  3.59305065E+00  4.02451474E-01  1.30901827E-01  9.46809706E+00
  2.01035451E+00  5.47710047E-01  1.52686138E-01  8.00000000E-01  1.23840169E+03
  1.86290050E+02  4.22511763E+01  1.16765579E+01  3.59305065E+00  4.02451474E-01
  1.30901827E-01  9.46809706E+00  2.01035451E+00  5.47710047E-01  1.52686138E-01
  8.00000000E-01  1.23840169E+03  1.86290050E+02  4.22511763E+01  1.16765579E+01
  3.59305065E+00  4.02451474E-01  1.30901827E-01  9.46809706E+00  2.01035451E+00
  5.47710047E-01  1.52686138E-01  8.00000000E-01  1.23840169E+03  1.86290050E+02
  4.22511763E+01  1.16765579E+01  3.59305065E+00  4.02451474E-01  1.30901827E-01
  9.46809706E+00  2.01035451E+00  5.47710047E-01  1.52686138E-01  8.00000000E-01
  1.23840169E+03  1.86290050E+02  4.22511763E+01  1.16765579E+01  3.59305065E+00
  4.02451474E-01  1.30901827E-01  9.46809706E+00  2.01035451E+00  5.47710047E-01
  1.52686138E-01  8.00000000E-01  1.23840169E+03  1.86290050E+02  4.22511763E+01
  1.16765579E+01  3.59305065E+00  4.02451474E-01  1.30901827E-01  9.46809706E+00
  2.01035451E+00  5.47710047E-01  1.52686138E-01  8.00000000E-01  9.18493030E+03
  1.38151055E+03  3.13871476E+02  8.80538706E+01  2.70399149E+01  4.56487313E+01
  4.96645223E+00  2.01162420E+00  3.56610770E-01  1.35072215E-01  2.61982334E+02
  6.13068947E+01  1.91037299E+01  6.65677204E+00  2.39596352E+00  6.17761617E-01
  1.69933769E-01  5.50000000E-01  2.01152990E+01  1.21934770E+01  6.07352944E+00
  1.31744516E+00  5.85967682E-01  1.38754274E-01  4.88769855E-02  8.60966500E+00
  7.33532600E+00  1.65752964E+00  7.81593102E-01  3.23848407E-01  5.40000000E-02
  4.14394900E+00  3.56825700E+00  1.23457571E+00  4.81902323E-01  1.64906368E-01
  7.24820000E-01  1.30107010E+01  1.96225720E+00  4.44537960E-01  1.21949620E-01
  8.00000000E-01  1.30107010E+01  1.96225720E+00  4.44537960E-01  1.21949620E-01
  8.00000000E-01  1.30107010E+01  1.96225720E+00  4.44537960E-01  1.21949620E-01
  8.00000000E-01  1.30107010E+01  1.96225720E+00  4.44537960E-01  1.21949620E-01
  8.00000000E-01  1.30107010E+01  1.96225720E+00  4.44537960E-01  1.21949620E-01
  8.00000000E-01  1.30107010E+01  1.96225720E+00  4.44537960E-01  1.21949620E-01
  8.00000000E-01  1.30107010E+01  1.96225720E+00  4.44537960E-01  1.21949620E-01
  8.00000000E-01  1.30107010E+01  1.96225720E+00  4.44537960E-01  1.21949620E-01
  8.00000000E-01  1.30107010E+01  1.96225720E+00  4.44537960E-01  1.21949620E-01
  8.00000000E-01
Contraction coefficients                   R   N=         226
  5.51736505E-03  4.10888286E-02  1.82253821E-01  4.68284594E-01  4.45758173E-01
  1.00000000E+00  1.00000000E+00  5.68883320E-02  3.12940593E-01  7.60650165E-01
  1.00000000E+00  1.00000000E+00  5.51736505E-03  4.10888286E-02  1.82253821E-01
  4.68284594E-01  4.45758173E-01  1.00000000E+00  1.00000000E+00  5.68883320E-02
  3.12940593E-01  7.60650165E-01  1.00000000E+00  1.00000000E+00  5.51736505E-03
  4.10888286E-02  1.82253821E-01  4.68284594E-01  4.45758173E-01  1.00000000E+00
  1.00000000E+00  5.68883320E-02  3.12940593E-01  7.60650165E-01  1.00000000E+00
  1.00000000E+00  5.51736505E-03  4.10888286E-02  1.82253821E-01  4.68284594E-01
  4.45758173E-01  1.00000000E+00  1.00000000E+00  5.68883320E-02  3.12940593E-01
  7.60650165E-01  1.00000000E+00  1.00000000E+00  5.51736505E-03  4.10888286E-02
  1.82253821E-01  4.68284594E-01  4.45758173E-01  1.00000000E+00  1.00000000E+00
  5.68883320E-02  3.12940593E-01  7.60650165E-01  1.00000000E+00  1.00000000E+00
  5.51736505E-03  4.10888286E-02  1.82253821E-01  4.68284594E-01  4.45758173E-01
  1.00000000E+00  1.00000000E+00  5.68883320E-02  3.12940593E-01  7.60650165E-01
  1.00000000E+00  1.00000000E+00  5.51736505E-03  4.10888286E-02  1.82253821E-01
  4.68284594E-01  4.45758173E-01  1.00000000E+00  1.00000000E+00  5.68883320E-02
  3.12940593E-01  7.60650165E-01  1.00000000E+00  1.00000000E+00  5.51736505E-03
  4.10888286E-02  1.82253821E-01  4.68284594E-01  4.45758173E-01  1.00000000E+00
  1.00000000E+00  5.68883320E-02  3.12940593E-01  7.60650165E-01  1.00000000E+00
  1.00000000E+00  5.51736505E-03  4.10888286E-02  1.82253821E-01  4.68284594E-01
  4.45758173E-01  1.00000000E+00  1.00000000E+00  5.68883320E-02  3.12940593E-01
  7.60650165E-01  1.00000000E+00  1.00000000E+00  5.51736505E-03  4.10888286E-02
  1.82253821E-01  4.68284594E-01  4.45758173E-01  1.00000000E+00  1.00000000E+00
  5.68883320E-02  3.12940593E-01  7.60650165E-01  1.00000000E+00  1.00000000E+00
  5.51736505E-03  4.10888286E-02  1.82253821E-01  4.68284594E-01  4.45758173E-01
  1.00000000E+00  1.00000000E+00  5.68883320E-02  3.12940593E-01  7.60650165E-01
  1.00000000E+00  1.00000000E+00  5.51736505E-03  4.10888286E-02  1.82253821E-01
  4.68284594E-01  4.45758173E-01  1.00000000E+00  1.00000000E+00  5.68883320E-02
  3.12940593E-01  7.60650165E-01  1.00000000E+00  1.00000000E+00 -5.47294661E-03
 -4.09544022E-02 -1.84758290E-01 -4.75672806E-01 -4.34951536E-01 -9.19040458E-02
  5.56987772E-01  5.11154683E-01  1.00000000E+00  1.00000000E+00 -9.18305466E-03
 -6.59022265E-02 -2.45877845E-01 -4.82314711E-01 -3.89563144E-01  1.00000000E+00
  1.00000000E+00  1.00000000E+00 -2.48242859E-01  1.23422340E+00  1.00000000E+00
  1.00000000E+00  1.00000000E+00  1.00000000E+00  1.00000000E+00  5.41386208E-01
 -7.86142546E-01  6.19939182E-01  5.36259847E-01  1.00000000E+00  1.00000000E+00
 -4.18646152E-01  4.53601450E-01  5.19104595E-01  5.20798860E-01  1.00000000E+00
  1.00000000E+00  3.34854848E-02  2.34721871E-01  8.13770285E-01  1.00000000E+00
  1.00000000E+00  3.34854848E-02  2.34721871E-01  8.13770285E-01  1.00000000E+00
  1.00000000E+00  3.34854848E-02  2.34721871E-01  8.13770285E-01  1.00000000E+00
  1.00000000E+00  3.34854848E-02  2.34721871E-01  8.13770285E-01  1.00000000E+00
  1.00000000E+00  3.34854848E-02  2.34721871E-01  8.13770285E-01  1.00000000E+00
  1.00000000E+00  3.34854848E-02  2.34721871E-01  8.13770285E-01  1.00000000E+00
  1.00000000E+00  3.34854848E-02  2.34721871E-01  8.13770285E-01  1.00000000E+00
  1.00000000E+00  3.34854848E-02  2.34721871E-01  8.13770285E-01  1.00000000E+00
  1.00000000E+00  3.34854848E-02  2.34721871E-01  8.13770285E-01  1.00000000E+00
  1.00000000E+00
Coordinates of each shell                  R   N=         357
 -4.62520546E+00 -5.82762135E+00 -2.12355998E-01 -4.62520546E+00 -5.82762135E+00
 -2.12355998E-01 -4.62520546E+00 -5.82762135E+00 -2.12355998E-01 -4.62520546E+00
 -5.82762135E+00 -2.12355998E-01 -4.62520546E+00 -5.82762135E+00 -2.12355998E-01
 -4.62520546E+00 -5.82762135E+00 -2.12355998E-01 -5.85359631E+00 -3.52397295E+00
  1.88804299E-01 -5.85359631E+00 -3.52397295E+00  1.88804299E-01 -5.85359631E+00
 -3.52397295E+00  1.88804299E-01 -5.85359631E+00 -3.52397295E+00  1.88804299E-01
 -5.85359631E+00 -3.52397295E+00  1.88804299E-01 -5.85359631E+00 -3.52397295E+00
  1.88804299E-01 -4.46828757E+00 -1.28419782E+00  3.15160986E-01 -4.46828757E+00
 -1.28419782E+00  3.15160986E-01 -4.46828757E+00 -1.28419782E+00  3.15160986E-01
 -4.46828757E+00 -1.28419782E+00  3.15160986E-01 -4.46828757E+00 -1.28419782E+00
  3.15160986E-01 -4.46828757E+00 -1.28419782E+00  3.15160986E-01 -1.82273651E+00
 -1.29608740E+00  4.69236917E-02 -1.82273651E+00 -1.29608740E+00  4.69236917E-02
 -1.82273651E+00 -1.29608740E+00  4.69236917E-02 -1.82273651E+00 -1.29608740E+00
  4.69236917E-02 -1.82273651E+00 -1.29608740E+00  4.69236917E-02 -1.82273651E+00
 -1.29608740E+00  4.69236917E-02 -6.13250563E-01 -3.63005541E+00 -3.54107530E-01
 -6.13250563E-01 -3.63005541E+00 -3.54107530E-01 -6.13250563E-01 -3.63005541E+00
 -3.54107530E-01 -6.13250563E-01 -3.63005541E+00 -3.54107530E-01 -6.13250563E-01
 -3.63005541E+00 -3.54107530E-01 -6.13250563E-01 -3.63005541E+00 -3.54107530E-01
 -1.99819597E+00 -5.86982740E+00 -4.84060138E-01 -1.99819597E+00 -5.86982740E+00
 -4.84060138E-01 -1.99819597E+00 -5.86982740E+00 -4.84060138E-01 -1.99819597E+00
 -5.86982740E+00 -4.84060138E-01 -1.99819597E+00 -5.86982740E+00 -4.84060138E-01
 -1.99819597E+00 -5.86982740E+00 -4.84060138E-01 -3.51166775E-01  1.08330003E+00
  1.82253085E-01 -3.51166775E-01  1.08330003E+00  1.82253085E-01 -3.51166775E-01
  1.08330003E+00  1.82253085E-01 -3.51166775E-01  1.08330003E+00  1.82253085E-01
 -3.51166775E-01  1.08330003E+00  1.82253085E-01 -3.51166775E-01  1.08330003E+00
  1.82253085E-01  2.07308714E+00  1.13704975E+00  1.27918993E+00  2.07308714E+00
  1.13704975E+00  1.27918993E+00  2.07308714E+00  1.13704975E+00  1.27918993E+00
  2.07308714E+00  1.13704975E+00  1.27918993E+00  2.07308714E+00  1.13704975E+00
  1.27918993E+00  2.07308714E+00  1.13704975E+00  1.27918993E+00  3.46128017E+00
  3.36713104E+00  1.40686575E+00  3.46128017E+00  3.36713104E+00  1.40686575E+00
  3.46128017E+00  3.36713104E+00  1.40686575E+00  3.46128017E+00  3.36713104E+00
  1.40686575E+00  3.46128017E+00  3.36713104E+00  1.40686575E+00  3.46128017E+00
  3.36713104E+00  1.40686575E+00  2.46682115E+00  5.62820017E+00  4.30157667E-01
  2.46682115E+00  5.62820017E+00  4.30157667E-01  2.46682115E+00  5.62820017E+00
  4.30157667E-01  2.46682115E+00  5.62820017E+00  4.30157667E-01  2.46682115E+00
  5.62820017E+00  4.30157667E-01  2.46682115E+00  5.62820017E+00  4.30157667E-01
  4.71968577E-02  5.59692956E+00 -6.64255081E-01  4.71968577E-02  5.59692956E+00
 -6.64255081E-01  4.71968577E-02  5.59692956E+00 -6.64255081E-01  4.71968577E-02
  5.59692956E+00 -6.64255081E-01  4.71968577E-02  5.59692956E+00 -6.64255081E-01
  4.71968577E-02  5.59692956E+00 -6.64255081E-01 -1.33325124E+00  3.36067465E+00
 -7.81215614E-01 -1.33325124E+00  3.36067465E+00 -7.81215614E-01 -1.33325124E+00
  3.36067465E+00 -7.81215614E-01 -1.33325124E+00  3.36067465E+00 -7.81215614E-01
 -1.33325124E+00  3.36067465E+00 -7.81215614E-01 -1.33325124E+00  3.36067465E+00
 -7.81215614E-01  4.14862708E+00  8.52130440E+00  7.57103471E-01  4.14862708E+00
  8.52130440E+00  7.57103471E-01  4.14862708E+00  8.52130440E+00  7.57103471E-01
  4.14862708E+00  8.52130440E+00  7.57103471E-01  4.14862708E+00  8.52130440E+00
  7.57103471E-01  4.14862708E+00  8.52130440E+00  7.57103471E-01  4.14862708E+00
  8.52130440E+00  7.57103471E-01  4.14862708E+00  8.52130440E+00  7.57103471E-01
  6.60378528E+00  8.65764943E+00 -2.83802761E+00  6.60378528E+00  8.65764943E+00
 -2.83802761E+00  6.60378528E+00  8.65764943E+00 -2.83802761E+00  6.60378528E+00
  8.65764943E+00 -2.83802761E+00  6.60378528E+00  8.65764943E+00 -2.83802761E+00
  6.60378528E+00  8.65764943E+00 -2.83802761E+00  6.60378528E+00  8.65764943E+00
 -2.83802761E+00  6.60378528E+00  8.65764943E+00 -2.83802761E+00  6.60378528E+00
  8.65764943E+00 -2.83802761E+00  6.60378528E+00  8.65764943E+00 -2.83802761E+00
  6.60378528E+00  8.65764943E+00 -2.83802761E+00  6.60378528E+00  8.65764943E+00
 -2.83802761E+00  2.85965197E+00 -5.89220042E-01  2.09045905E+00  2.85965197E+00
 -5.89220042E-01  2.09045905E+00  2.85965197E+00 -5.89220042E-01  2.09045905E+00
 -3.18909128E+00  3.36659239E+00 -1.68275011E+00 -3.18909128E+00  3.36659239E+00
 -1.68275011E+00 -3.18909128E+00  3.36659239E+00 -1.68275011E+00 -5.44468603E+00
  4.97102229E-01  6.77279279E-01 -5.44468603E+00  4.97102229E-01  6.77279279E-01
 -5.44468603E+00  4.97102229E-01  6.77279279E-01  1.43275628E+00 -3.68214736E+00
 -6.16435312E-01  1.43275628E+00 -3.68214736E+00 -6.16435312E-01  1.43275628E+00
 -3.68214736E+00 -6.16435312E-01  5.32978905E+00  3.38631510E+00  2.28033947E+00
  5.32978905E+00  3.38631510E+00  2.28033947E+00  5.32978905E+00  3.38631510E+00
  2.28033947E+00 -7.27493948E-01  7.34469663E+00 -1.43875083E+00 -7.27493948E-01
  7.34469663E+00 -1.43875083E+00 -7.27493948E-01  7.34469663E+00 -1.43875083E+00
 -7.90475087E+00 -3.47155704E+00  4.20704212E-01 -7.90475087E+00 -3.47155704E+00
  4.20704212E-01 -7.90475087E+00 -3.47155704E+00  4.20704212E-01 -1.02063169E+00
 -7.65836364E+00 -8.14701649E-01 -1.02063169E+00 -7.65836364E+00 -8.14701649E-01
 -1.02063169E+00 -7.65836364E+00 -8.14701649E-01 -5.70979332E+00 -7.58142016E+00
 -3.12475256E-01 -5.70979332E+00 -7.58142016E+00 -3.12475256E-01 -5.70979332E+00
 -7.58142016E+00 -3.12475256E-01
Constraint Structure                       R   N=          69
 -4.62520546E+00 -5.82762135E+00 -2.12355998E-01 -5.85359631E+00 -3.52397295E+00
  1.88804299E-01 -4.46828757E+00 -1.28419782E+00  3.15160986E-01 -1.82273651E+00
 -1.29608740E+00  4.69236917E-02 -6.13250563E-01 -3.63005541E+00 -3.54107530E-01
 -1.99819597E+00 -5.86982740E+00 -4.84060138E-01 -3.51166775E-01  1.08330003E+00
  1.82253085E-01  2.07308714E+00  1.13704975E+00  1.27918993E+00  3.46128017E+00
  3.36713104E+00  1.40686575E+00  2.46682115E+00  5.62820017E+00  4.30157667E-01
  4.71968577E-02  5.59692956E+00 -6.64255081E-01 -1.33325124E+00  3.36067465E+00
 -7.81215614E-01  4.14862708E+00  8.52130440E+00  7.57103471E-01  6.60378528E+00
  8.65764943E+00 -2.83802761E+00  2.85965197E+00 -5.89220042E-01  2.09045905E+00
 -3.18909128E+00  3.36659239E+00 -1.68275011E+00 -5.44468603E+00  4.97102229E-01
  6.77279279E-01  1.43275628E+00 -3.68214736E+00 -6.16435312E-01  5.32978905E+00
  3.38631510E+00  2.28033947E+00 -7.27493948E-01  7.34469663E+00 -1.43875083E+00
 -7.90475087E+00 -3.47155704E+00  4.20704212E-01 -1.02063169E+00 -7.65836364E+00
 -8.14701649E-01 -5.70979332E+00 -7.58142016E+00 -3.12475256E-01
Num ILSW                                   I              100
ILSW                                       I   N=         100
           0           0           0           0           2           0
           0           0           0           0         402          -1
           5           0           0           0           2           0
           0           0           0           0           1           0
           1           1           0           0           0           0
           0           0      100000           0          -1           0
           0           0           0           0           0           0
           0           0           0           1           0           0
           0           0           1           0           0           0
           0           0         141          41           0           0
           0           0           5           0           0           0
           0           0           0          23           0           0
           0           0           0           0           0           0
           0           0           0           0           0           0
           0           0           0           0           0           0
           0           0           0           0           0           0
           0           0           0           0
Num RLSW                                   I               41
RLSW                                       R   N=          41
  8.00000000E-01  7.20000000E-01  1.00000000E+00  8.10000000E-01  2.00000000E-01
  0.00000000E+00  0.00000000E+00  1.00000000E+00  0.00000000E+00  0.00000000E+00
  0.00000000E+00  0.00000000E+00  1.00000000E+00  0.00000000E+00  0.00000000E+00
  0.00000000E+00  0.00000000E+00  1.00000000E+00  0.00000000E+00  0.00000000E+00
  0.00000000E+00  0.00000000E+00  1.00000000E+00  0.00000000E+00  0.00000000E+00
  0.00000000E+00  0.00000000E+00  1.00000000E+00  0.00000000E+00  0.00000000E+00
  0.00000000E+00  0.00000000E+00  1.00000000E+00  0.00000000E+00  0.00000000E+00
  0.00000000E+00  0.00000000E+00  0.00000000E+00  1.00000000E+00  1.00000000E+00
  0.00000000E+00
ECP-MxAtEC                                 I           250000
ECP-MaxLECP                                I               10
ECP-MaxAtL                                 I          2250000
ECP-MxTECP                                 I         11250000
ECP-LenNCZ                                 I                9
ECP-KFirst                                 I   N=         230
           0           0           0           0           0           0
           0           0           0           0           0           0
           0           1           0           0           0           0
           0           0           0           0           0           0
           0           0           0           0           0           0
           0           0           0           0           0           0